 Entering Gaussian System, Link 0=/opt/software/Gaussian/g16-AVX2-C.01/g16/g16
 Input=mobley_1244778.com
 Output=mobley_1244778.log
 Initial command:
 /opt/software/Gaussian/g16-AVX2-C.01/g16/l1.exe "/mnt/gs21/scratch/rahnamou/Gau-18561.inp" -scrdir="/mnt/gs21/scratch/rahnamou/"
 Entering Link 1 = /opt/software/Gaussian/g16-AVX2-C.01/g16/l1.exe PID=     18570.
  
 Copyright (c) 1988-2019, Gaussian, Inc.  All Rights Reserved.
  
 This is part of the Gaussian(R) 16 program.  It is based on
 the Gaussian(R) 09 system (copyright 2009, Gaussian, Inc.),
 the Gaussian(R) 03 system (copyright 2003, Gaussian, Inc.),
 the Gaussian(R) 98 system (copyright 1998, Gaussian, Inc.),
 the Gaussian(R) 94 system (copyright 1995, Gaussian, Inc.),
 the Gaussian 92(TM) system (copyright 1992, Gaussian, Inc.),
 the Gaussian 90(TM) system (copyright 1990, Gaussian, Inc.),
 the Gaussian 88(TM) system (copyright 1988, Gaussian, Inc.),
 the Gaussian 86(TM) system (copyright 1986, Carnegie Mellon
 University), and the Gaussian 82(TM) system (copyright 1983,
 Carnegie Mellon University). Gaussian is a federally registered
 trademark of Gaussian, Inc.
  
 This software contains proprietary and confidential information,
 including trade secrets, belonging to Gaussian, Inc.
  
 This software is provided under written license and may be
 used, copied, transmitted, or stored only in accord with that
 written license.
  
 The following legend is applicable only to US Government
 contracts under FAR:
  
                    RESTRICTED RIGHTS LEGEND
  
 Use, reproduction and disclosure by the US Government is
 subject to restrictions as set forth in subparagraphs (a)
 and (c) of the Commercial Computer Software - Restricted
 Rights clause in FAR 52.227-19.
  
 Gaussian, Inc.
 340 Quinnipiac St., Bldg. 40, Wallingford CT 06492
  
  
 ---------------------------------------------------------------
 Warning -- This program may not be used in any manner that
 competes with the business of Gaussian, Inc. or will provide
 assistance to any competitor of Gaussian, Inc.  The licensee
 of this program is prohibited from giving any competitor of
 Gaussian, Inc. access to this program.  By using this program,
 the user acknowledges that Gaussian, Inc. is engaged in the
 business of creating and licensing software in the field of
 computational chemistry and represents and warrants to the
 licensee that it is not a competitor of Gaussian, Inc. and that
 it will not use this program in any manner prohibited above.
 ---------------------------------------------------------------
  

 Cite this work as:
 Gaussian 16, Revision C.01,
 M. J. Frisch, G. W. Trucks, H. B. Schlegel, G. E. Scuseria, 
 M. A. Robb, J. R. Cheeseman, G. Scalmani, V. Barone, 
 G. A. Petersson, H. Nakatsuji, X. Li, M. Caricato, A. V. Marenich, 
 J. Bloino, B. G. Janesko, R. Gomperts, B. Mennucci, H. P. Hratchian, 
 J. V. Ortiz, A. F. Izmaylov, J. L. Sonnenberg, D. Williams-Young, 
 F. Ding, F. Lipparini, F. Egidi, J. Goings, B. Peng, A. Petrone, 
 T. Henderson, D. Ranasinghe, V. G. Zakrzewski, J. Gao, N. Rega, 
 G. Zheng, W. Liang, M. Hada, M. Ehara, K. Toyota, R. Fukuda, 
 J. Hasegawa, M. Ishida, T. Nakajima, Y. Honda, O. Kitao, H. Nakai, 
 T. Vreven, K. Throssell, J. A. Montgomery, Jr., J. E. Peralta, 
 F. Ogliaro, M. J. Bearpark, J. J. Heyd, E. N. Brothers, K. N. Kudin, 
 V. N. Staroverov, T. A. Keith, R. Kobayashi, J. Normand, 
 K. Raghavachari, A. P. Rendell, J. C. Burant, S. S. Iyengar, 
 J. Tomasi, M. Cossi, J. M. Millam, M. Klene, C. Adamo, R. Cammi, 
 J. W. Ochterski, R. L. Martin, K. Morokuma, O. Farkas, 
 J. B. Foresman, and D. J. Fox, Gaussian, Inc., Wallingford CT, 2019.
 
 ******************************************
 Gaussian 16:  ES64L-G16RevC.01  3-Jul-2019
                 2-Nov-2023 
 ******************************************
 %chk=mobley_1244778.chk
 %mem=1GB
 %NProcShared=1
 Will use up to    1 processors via shared memory.
 -------------------------------------------------------
 #HF/6-31G* SCF=tight Pop=MK iop(6/33=2) iop(6/42=6) opt
 -------------------------------------------------------
 1/18=20,19=15,38=1/1,3;
 2/9=110,12=2,17=6,18=5,40=1/2;
 3/5=1,6=6,7=1,11=9,25=1,30=1,71=1/1,2,3;
 4//1;
 5/5=2,32=2,38=5/2;
 6/7=2,8=2,9=2,10=2,15=8,20=1,28=1,33=2,42=6/1,2;
 7//1,2,3,16;
 1/18=20,19=15/3(2);
 2/9=110/2;
 99//99;
 2/9=110/2;
 3/5=1,6=6,7=1,11=9,25=1,30=1,71=1/1,2,3;
 4/5=5,16=3,69=1/1;
 5/5=2,32=2,38=5/2;
 7//1,2,3,16;
 1/18=20,19=15/3(-5);
 2/9=110/2;
 6/7=2,8=2,9=2,10=2,15=8,19=2,20=1,28=1,33=2,42=6/1,2;
 99/9=1/99;
 --------------
 mobley_1244778
 --------------
 Symbolic Z-matrix:
 Charge =  0 Multiplicity = 1
 C                     0.826    -0.229     0.686 
 C                     0.774    -1.724     0.985 
 C                     1.477    -2.208     2.249 
 C                     2.809    -1.531     2.551 
 C                     2.656    -0.235     3.347 
 C                     2.067     0.94      2.567 
 C                     0.716     0.68      1.906 
 O                     3.958     0.144     3.802 
 H                     0.        0.        0. 
 H                     1.743     0.001     0.13 
 H                    -0.276    -2.039     1.044 
 H                     1.191    -2.256     0.12 
 H                     0.803    -2.102     3.108 
 H                     1.648    -3.287     2.14 
 H                     3.415    -2.223     3.152 
 H                     3.39     -1.363     1.635 
 H                     2.049    -0.425     4.24 
 H                     1.959     1.786     3.259 
 H                     2.792     1.284     1.817 
 H                    -0.009     0.292     2.629 
 H                     0.329     1.649     1.565 
 H                     3.842     0.964     4.302 
 

 GradGradGradGradGradGradGradGradGradGradGradGradGradGradGradGradGradGrad
 Berny optimization.
 Initialization pass.
                           ----------------------------
                           !    Initial Parameters    !
                           ! (Angstroms and Degrees)  !
 --------------------------                            --------------------------
 ! Name  Definition              Value          Derivative Info.                !
 --------------------------------------------------------------------------------
 ! R1    R(1,2)                  1.5255         estimate D2E/DX2                !
 ! R2    R(1,7)                  1.5254         estimate D2E/DX2                !
 ! R3    R(1,9)                  1.0979         estimate D2E/DX2                !
 ! R4    R(1,10)                 1.0968         estimate D2E/DX2                !
 ! R5    R(2,3)                  1.5252         estimate D2E/DX2                !
 ! R6    R(2,11)                 1.0978         estimate D2E/DX2                !
 ! R7    R(2,12)                 1.0978         estimate D2E/DX2                !
 ! R8    R(3,4)                  1.5244         estimate D2E/DX2                !
 ! R9    R(3,13)                 1.097          estimate D2E/DX2                !
 ! R10   R(3,14)                 1.0979         estimate D2E/DX2                !
 ! R11   R(4,5)                  1.5286         estimate D2E/DX2                !
 ! R12   R(4,15)                 1.0988         estimate D2E/DX2                !
 ! R13   R(4,16)                 1.0977         estimate D2E/DX2                !
 ! R14   R(5,6)                  1.5284         estimate D2E/DX2                !
 ! R15   R(5,8)                  1.4303         estimate D2E/DX2                !
 ! R16   R(5,17)                 1.0964         estimate D2E/DX2                !
 ! R17   R(6,7)                  1.5263         estimate D2E/DX2                !
 ! R18   R(6,18)                 1.0983         estimate D2E/DX2                !
 ! R19   R(6,19)                 1.0984         estimate D2E/DX2                !
 ! R20   R(7,20)                 1.0949         estimate D2E/DX2                !
 ! R21   R(7,21)                 1.0977         estimate D2E/DX2                !
 ! R22   R(8,22)                 0.9674         estimate D2E/DX2                !
 ! A1    A(2,1,7)              115.137          estimate D2E/DX2                !
 ! A2    A(2,1,9)              107.5322         estimate D2E/DX2                !
 ! A3    A(2,1,10)             109.4737         estimate D2E/DX2                !
 ! A4    A(7,1,9)              108.7354         estimate D2E/DX2                !
 ! A5    A(7,1,10)             109.9242         estimate D2E/DX2                !
 ! A6    A(9,1,10)             105.5775         estimate D2E/DX2                !
 ! A7    A(1,2,3)              117.2403         estimate D2E/DX2                !
 ! A8    A(1,2,11)             108.9252         estimate D2E/DX2                !
 ! A9    A(1,2,12)             107.9108         estimate D2E/DX2                !
 ! A10   A(3,2,11)             107.7737         estimate D2E/DX2                !
 ! A11   A(3,2,12)             108.9137         estimate D2E/DX2                !
 ! A12   A(11,2,12)            105.4623         estimate D2E/DX2                !
 ! A13   A(2,3,4)              115.2146         estimate D2E/DX2                !
 ! A14   A(2,3,13)             109.5783         estimate D2E/DX2                !
 ! A15   A(2,3,14)             107.5412         estimate D2E/DX2                !
 ! A16   A(4,3,13)             109.805          estimate D2E/DX2                !
 ! A17   A(4,3,14)             108.6656         estimate D2E/DX2                !
 ! A18   A(13,3,14)            105.5693         estimate D2E/DX2                !
 ! A19   A(3,4,5)              113.0938         estimate D2E/DX2                !
 ! A20   A(3,4,15)             108.0943         estimate D2E/DX2                !
 ! A21   A(3,4,16)             111.4172         estimate D2E/DX2                !
 ! A22   A(5,4,15)             107.718          estimate D2E/DX2                !
 ! A23   A(5,4,16)             110.9635         estimate D2E/DX2                !
 ! A24   A(15,4,16)            105.1246         estimate D2E/DX2                !
 ! A25   A(4,5,6)              115.1266         estimate D2E/DX2                !
 ! A26   A(4,5,8)              107.409          estimate D2E/DX2                !
 ! A27   A(4,5,17)             109.4287         estimate D2E/DX2                !
 ! A28   A(6,5,8)              108.0251         estimate D2E/DX2                !
 ! A29   A(6,5,17)             109.6061         estimate D2E/DX2                !
 ! A30   A(8,5,17)             106.9054         estimate D2E/DX2                !
 ! A31   A(5,6,7)              115.5411         estimate D2E/DX2                !
 ! A32   A(5,6,18)             107.9707         estimate D2E/DX2                !
 ! A33   A(5,6,19)             109.565          estimate D2E/DX2                !
 ! A34   A(7,6,18)             108.4836         estimate D2E/DX2                !
 ! A35   A(7,6,19)             109.9913         estimate D2E/DX2                !
 ! A36   A(18,6,19)            104.7076         estimate D2E/DX2                !
 ! A37   A(1,7,6)              112.5844         estimate D2E/DX2                !
 ! A38   A(1,7,20)             111.389          estimate D2E/DX2                !
 ! A39   A(1,7,21)             107.6383         estimate D2E/DX2                !
 ! A40   A(6,7,20)             111.1296         estimate D2E/DX2                !
 ! A41   A(6,7,21)             107.2299         estimate D2E/DX2                !
 ! A42   A(20,7,21)            106.5282         estimate D2E/DX2                !
 ! A43   A(5,8,22)             106.252          estimate D2E/DX2                !
 ! D1    D(7,1,2,3)            -37.9233         estimate D2E/DX2                !
 ! D2    D(7,1,2,11)            84.7244         estimate D2E/DX2                !
 ! D3    D(7,1,2,12)          -161.2585         estimate D2E/DX2                !
 ! D4    D(9,1,2,3)           -159.277          estimate D2E/DX2                !
 ! D5    D(9,1,2,11)           -36.6293         estimate D2E/DX2                !
 ! D6    D(9,1,2,12)            77.3878         estimate D2E/DX2                !
 ! D7    D(10,1,2,3)            86.4918         estimate D2E/DX2                !
 ! D8    D(10,1,2,11)         -150.8606         estimate D2E/DX2                !
 ! D9    D(10,1,2,12)          -36.8434         estimate D2E/DX2                !
 ! D10   D(2,1,7,6)             86.5083         estimate D2E/DX2                !
 ! D11   D(2,1,7,20)           -39.0978         estimate D2E/DX2                !
 ! D12   D(2,1,7,21)          -155.5299         estimate D2E/DX2                !
 ! D13   D(9,1,7,6)           -152.7932         estimate D2E/DX2                !
 ! D14   D(9,1,7,20)            81.6007         estimate D2E/DX2                !
 ! D15   D(9,1,7,21)           -34.8314         estimate D2E/DX2                !
 ! D16   D(10,1,7,6)           -37.6704         estimate D2E/DX2                !
 ! D17   D(10,1,7,20)         -163.2764         estimate D2E/DX2                !
 ! D18   D(10,1,7,21)           80.2915         estimate D2E/DX2                !
 ! D19   D(1,2,3,4)            -39.4434         estimate D2E/DX2                !
 ! D20   D(1,2,3,13)            84.9557         estimate D2E/DX2                !
 ! D21   D(1,2,3,14)          -160.7649         estimate D2E/DX2                !
 ! D22   D(11,2,3,4)          -162.6805         estimate D2E/DX2                !
 ! D23   D(11,2,3,13)          -38.2813         estimate D2E/DX2                !
 ! D24   D(11,2,3,14)           75.998          estimate D2E/DX2                !
 ! D25   D(12,2,3,4)            83.3792         estimate D2E/DX2                !
 ! D26   D(12,2,3,13)         -152.2216         estimate D2E/DX2                !
 ! D27   D(12,2,3,14)          -37.9423         estimate D2E/DX2                !
 ! D28   D(2,3,4,5)             86.5059         estimate D2E/DX2                !
 ! D29   D(2,3,4,15)          -154.3254         estimate D2E/DX2                !
 ! D30   D(2,3,4,16)           -39.3004         estimate D2E/DX2                !
 ! D31   D(13,3,4,5)           -37.7745         estimate D2E/DX2                !
 ! D32   D(13,3,4,15)           81.3942         estimate D2E/DX2                !
 ! D33   D(13,3,4,16)         -163.5808         estimate D2E/DX2                !
 ! D34   D(14,3,4,5)          -152.7839         estimate D2E/DX2                !
 ! D35   D(14,3,4,15)          -33.6153         estimate D2E/DX2                !
 ! D36   D(14,3,4,16)           81.4098         estimate D2E/DX2                !
 ! D37   D(3,4,5,6)            -71.5936         estimate D2E/DX2                !
 ! D38   D(3,4,5,8)            168.0592         estimate D2E/DX2                !
 ! D39   D(3,4,5,17)            52.3535         estimate D2E/DX2                !
 ! D40   D(15,4,5,6)           169.0209         estimate D2E/DX2                !
 ! D41   D(15,4,5,8)            48.6737         estimate D2E/DX2                !
 ! D42   D(15,4,5,17)          -67.032          estimate D2E/DX2                !
 ! D43   D(16,4,5,6)            54.4554         estimate D2E/DX2                !
 ! D44   D(16,4,5,8)           -65.8918         estimate D2E/DX2                !
 ! D45   D(16,4,5,17)          178.4025         estimate D2E/DX2                !
 ! D46   D(4,5,6,7)             55.3533         estimate D2E/DX2                !
 ! D47   D(4,5,6,18)           176.9802         estimate D2E/DX2                !
 ! D48   D(4,5,6,19)           -69.5331         estimate D2E/DX2                !
 ! D49   D(8,5,6,7)            175.362          estimate D2E/DX2                !
 ! D50   D(8,5,6,18)           -63.0111         estimate D2E/DX2                !
 ! D51   D(8,5,6,19)            50.4756         estimate D2E/DX2                !
 ! D52   D(17,5,6,7)           -68.5002         estimate D2E/DX2                !
 ! D53   D(17,5,6,18)           53.1267         estimate D2E/DX2                !
 ! D54   D(17,5,6,19)          166.6134         estimate D2E/DX2                !
 ! D55   D(4,5,8,22)           179.9755         estimate D2E/DX2                !
 ! D56   D(6,5,8,22)            55.2251         estimate D2E/DX2                !
 ! D57   D(17,5,8,22)          -62.6605         estimate D2E/DX2                !
 ! D58   D(5,6,7,1)            -73.017          estimate D2E/DX2                !
 ! D59   D(5,6,7,20)            52.7296         estimate D2E/DX2                !
 ! D60   D(5,6,7,21)           168.7808         estimate D2E/DX2                !
 ! D61   D(18,6,7,1)           165.6318         estimate D2E/DX2                !
 ! D62   D(18,6,7,20)          -68.6216         estimate D2E/DX2                !
 ! D63   D(18,6,7,21)           47.4296         estimate D2E/DX2                !
 ! D64   D(19,6,7,1)            51.6486         estimate D2E/DX2                !
 ! D65   D(19,6,7,20)          177.3952         estimate D2E/DX2                !
 ! D66   D(19,6,7,21)          -66.5536         estimate D2E/DX2                !
 --------------------------------------------------------------------------------
 Trust Radius=3.00D-01 FncErr=1.00D-07 GrdErr=1.00D-07 EigMax=2.50D+02 EigMin=1.00D-04
 Number of steps in this run=    132 maximum allowed number of steps=    132.
 GradGradGradGradGradGradGradGradGradGradGradGradGradGradGradGradGradGrad

                          Input orientation:                          
 ---------------------------------------------------------------------
 Center     Atomic      Atomic             Coordinates (Angstroms)
 Number     Number       Type             X           Y           Z
 ---------------------------------------------------------------------
      1          6           0        0.826000   -0.229000    0.686000
      2          6           0        0.774000   -1.724000    0.985000
      3          6           0        1.477000   -2.208000    2.249000
      4          6           0        2.809000   -1.531000    2.551000
      5          6           0        2.656000   -0.235000    3.347000
      6          6           0        2.067000    0.940000    2.567000
      7          6           0        0.716000    0.680000    1.906000
      8          8           0        3.958000    0.144000    3.802000
      9          1           0        0.000000    0.000000    0.000000
     10          1           0        1.743000    0.001000    0.130000
     11          1           0       -0.276000   -2.039000    1.044000
     12          1           0        1.191000   -2.256000    0.120000
     13          1           0        0.803000   -2.102000    3.108000
     14          1           0        1.648000   -3.287000    2.140000
     15          1           0        3.415000   -2.223000    3.152000
     16          1           0        3.390000   -1.363000    1.635000
     17          1           0        2.049000   -0.425000    4.240000
     18          1           0        1.959000    1.786000    3.259000
     19          1           0        2.792000    1.284000    1.817000
     20          1           0       -0.009000    0.292000    2.629000
     21          1           0        0.329000    1.649000    1.565000
     22          1           0        3.842000    0.964000    4.302000
 ---------------------------------------------------------------------
                    Distance matrix (angstroms):
                    1          2          3          4          5
     1  C    0.000000
     2  C    1.525493   0.000000
     3  C    2.604460   1.525176   0.000000
     4  C    3.017568   2.575040   1.524387   0.000000
     5  C    3.229529   3.367208   2.547229   1.528608   0.000000
     6  C    2.538662   3.357301   3.218560   2.580051   1.528380
     7  C    1.525379   2.575038   3.006213   3.112105   2.584048
     8  O    4.433735   4.643573   3.754873   2.385545   1.430339
     9  H    1.097867   2.131074   3.480631   4.091704   4.279249
    10  H    1.096779   2.155368   3.072556   3.056897   3.352365
    11  H    2.149109   1.097819   2.133915   3.470783   4.141841
    12  H    2.135956   1.097788   2.148660   3.008872   4.079730
    13  H    3.061820   2.156584   1.096993   2.158779   2.641291
    14  H    3.484417   2.130932   1.097890   2.144849   3.433310
    15  H    4.093912   3.452502   2.138101   1.098772   2.136879
    16  H    2.959840   2.719610   2.179585   1.097652   2.177633
    17  H    3.763650   3.729350   2.733195   2.157210   1.096357
    18  H    3.458937   4.346884   4.147826   3.496606   2.139625
    19  H    2.726442   3.716532   3.756316   2.909170   2.160268
    20  H    2.178053   2.716630   2.933018   3.357162   2.809889
    21  H    2.132260   3.451312   4.081937   4.151505   3.484237
    22  H    4.857464   5.257419   4.457535   3.218403   1.938098
                    6          7          8          9         10
     6  C    0.000000
     7  C    1.526343   0.000000
     8  O    2.394728   3.793768   0.000000
     9  H    3.427182   2.146600   5.490146   0.000000
    10  H    2.631666   2.161006   4.290718   1.747842   0.000000
    11  H    4.084559   3.019945   5.504435   2.307300   3.012201
    12  H    4.119418   3.469224   5.193593   2.553902   2.323543
    13  H    3.338284   3.031814   3.934486   3.837040   3.764929
    14  H    4.269124   4.081724   4.457590   4.254395   3.854876
    15  H    3.487678   4.155060   2.513969   5.151607   4.107827
    16  H    2.814740   3.376028   2.699919   4.002886   2.614982
    17  H    2.159277   2.906109   2.039580   4.728279   4.143333
    18  H    1.098291   2.144503   2.643296   4.201019   3.608812
    19  H    1.098390   2.163912   2.568926   3.570071   2.364838
    20  H    2.175666   1.094942   4.139435   2.645182   3.065809
    21  H    2.127752   1.097730   4.520933   2.297100   2.602792
    22  H    2.482222   3.948841   0.967397   5.847860   4.768517
                   11         12         13         14         15
    11  H    0.000000
    12  H    1.747270   0.000000
    13  H    2.329873   3.017019   0.000000
    14  H    2.541751   2.313484   1.747934   0.000000
    15  H    4.254527   3.760358   2.615171   2.297505   0.000000
    16  H    3.774363   2.815719   3.067315   2.644119   1.743994
    17  H    4.269079   4.589458   2.376188   3.572372   2.506492
    18  H    4.952986   5.175027   4.059025   5.204249   4.266552
    19  H    4.588298   4.239647   4.133739   4.723040   3.803867
    20  H    2.831444   3.771921   2.572940   3.974168   4.280482
    21  H    3.773435   4.252069   4.083568   5.141447   5.199457
    22  H    6.049008   5.906380   4.479008   5.249655   3.414937
                   16         17         18         19         20
    16  H    0.000000
    17  H    3.076386   0.000000
    18  H    3.821170   2.420533   0.000000
    19  H    2.719805   3.056740   1.739327   0.000000
    20  H    3.908998   2.710124   2.549894   3.080424   0.000000
    21  H    4.294970   3.796775   2.354847   2.502618   1.757211
    22  H    3.568210   2.268924   2.304175   2.716639   4.252142
                   21         22
    21  H    0.000000
    22  H    4.505726   0.000000
 Stoichiometry    C7H14O
 Framework group  C1[X(C7H14O)]
 Deg. of freedom    60
 Full point group                 C1      NOp   1
 Largest Abelian subgroup         C1      NOp   1
 Largest concise Abelian subgroup C1      NOp   1
                         Standard orientation:                         
 ---------------------------------------------------------------------
 Center     Atomic      Atomic             Coordinates (Angstroms)
 Number     Number       Type             X           Y           Z
 ---------------------------------------------------------------------
      1          6           0       -1.692223    0.818915   -0.486251
      2          6           0       -2.010257   -0.620066   -0.092148
      3          6           0       -0.857625   -1.472194    0.428887
      4          6           0        0.472596   -1.273993   -0.288739
      5          6           0        1.298549   -0.123495    0.286409
      6          6           0        0.759833    1.275134   -0.012869
      7          6           0       -0.684126    1.528959    0.411724
      8          8           0        2.612632   -0.220084   -0.270121
      9          1           0       -2.634765    1.381702   -0.472140
     10          1           0       -1.348894    0.845462   -1.527570
     11          1           0       -2.795784   -0.613887    0.674739
     12          1           0       -2.455556   -1.118124   -0.963231
     13          1           0       -0.729170   -1.298734    1.504435
     14          1           0       -1.154864   -2.524776    0.333589
     15          1           0        1.060573   -2.195613   -0.178286
     16          1           0        0.330353   -1.152925   -1.370382
     17          1           0        1.400893   -0.254194    1.370126
     18          1           0        1.405590    2.003115    0.496332
     19          1           0        0.880973    1.494925   -1.082205
     20          1           0       -0.836870    1.271648    1.464984
     21          1           0       -0.863657    2.608410    0.324748
     22          1           0        3.119631    0.514097    0.103760
 ---------------------------------------------------------------------
 Rotational constants (GHZ):           3.0717460           1.6715550           1.2077039
 Standard basis: 6-31G(d) (6D, 7F)
 There are   148 symmetry adapted cartesian basis functions of A   symmetry.
 There are   148 symmetry adapted basis functions of A   symmetry.
   148 basis functions,   280 primitive gaussians,   148 cartesian basis functions
    32 alpha electrons       32 beta electrons
       nuclear repulsion energy       411.7693814787 Hartrees.
 NAtoms=   22 NActive=   22 NUniq=   22 SFac= 1.00D+00 NAtFMM=   60 NAOKFM=F Big=F
 Integral buffers will be    131072 words long.
 Raffenetti 1 integral format.
 Two-electron integral symmetry is turned on.
 One-electron integrals computed using PRISM.
 NBasis=   148 RedAO= T EigKep=  2.86D-03  NBF=   148
 NBsUse=   148 1.00D-06 EigRej= -1.00D+00 NBFU=   148
 ExpMin= 1.61D-01 ExpMax= 5.48D+03 ExpMxC= 8.25D+02 IAcc=3 IRadAn=         5 AccDes= 0.00D+00
 Harris functional with IExCor=  205 and IRadAn=       5 diagonalized for initial guess.
 HarFok:  IExCor=  205 AccDes= 0.00D+00 IRadAn=         5 IDoV= 1 UseB2=F ITyADJ=14
 ICtDFT=  3500011 ScaDFX=  1.000000  1.000000  1.000000  1.000000
 FoFCou: FMM=F IPFlag=           0 FMFlag=      100000 FMFlg1=           0
         NFxFlg=           0 DoJE=T BraDBF=F KetDBF=T FulRan=T
         wScrn=  0.000000 ICntrl=       500 IOpCl=  0 I1Cent=   200000004 NGrid=           0
         NMat0=    1 NMatS0=      1 NMatT0=    0 NMatD0=    1 NMtDS0=    0 NMtDT0=    0
 Petite list used in FoFCou.
 Keep R1 ints in memory in canonical form, NReq=62447500.
 Requested convergence on RMS density matrix=1.00D-08 within 128 cycles.
 Requested convergence on MAX density matrix=1.00D-06.
 Requested convergence on             energy=1.00D-06.
 No special actions if energy rises.
 SCF Done:  E(RHF) =  -348.078866576     A.U. after   12 cycles
            NFock= 12  Conv=0.40D-08     -V/T= 2.0011
 SCF density gives NOpUse=  1 NOpAll=  1.

 **********************************************************************

            Population analysis using the SCF Density.

 **********************************************************************

 Orbital symmetries:
 BldTbl:  Degeneracy threshold= 1.00D-02
       Occupied  (A) (A) (A) (A) (A) (A) (A) (A) (A) (A) (A) (A)
                 (A) (A) (A) (A) (A) (A) (A) (A) (A) (A) (A) (A)
                 (A) (A) (A) (A) (A) (A) (A) (A)
       Virtual   (A) (A) (A) (A) (A) (A) (A) (A) (A) (A) (A) (A)
                 (A) (A) (A) (A) (A) (A) (A) (A) (A) (A) (A) (A)
                 (A) (A) (A) (A) (A) (A) (A) (A) (A) (A) (A) (A)
                 (A) (A) (A) (A) (A) (A) (A) (A) (A) (A) (A) (A)
                 (A) (A) (A) (A) (A) (A) (A) (A) (A) (A) (A) (A)
                 (A) (A) (A) (A) (A) (A) (A) (A) (A) (A) (A) (A)
                 (A) (A) (A) (A) (A) (A) (A) (A) (A) (A) (A) (A)
                 (A) (A) (A) (A) (A) (A) (A) (A) (A) (A) (A) (A)
                 (A) (A) (A) (A) (A) (A) (A) (A) (A) (A) (A) (A)
                 (A) (A) (A) (A) (A) (A) (A) (A)
 The electronic state is 1-A.
 Alpha  occ. eigenvalues --  -20.54934 -11.27284 -11.22051 -11.21839 -11.21692
 Alpha  occ. eigenvalues --  -11.21598 -11.21440 -11.21351  -1.34747  -1.10732
 Alpha  occ. eigenvalues --   -1.03225  -1.01570  -0.88817  -0.87245  -0.77565
 Alpha  occ. eigenvalues --   -0.75103  -0.67978  -0.65287  -0.62379  -0.61069
 Alpha  occ. eigenvalues --   -0.58513  -0.56213  -0.55820  -0.52931  -0.52083
 Alpha  occ. eigenvalues --   -0.49030  -0.48380  -0.45458  -0.45088  -0.44593
 Alpha  occ. eigenvalues --   -0.43644  -0.41886
 Alpha virt. eigenvalues --    0.21367   0.22680   0.24408   0.27244   0.28108
 Alpha virt. eigenvalues --    0.28521   0.29101   0.31983   0.33175   0.33230
 Alpha virt. eigenvalues --    0.33526   0.34824   0.37000   0.38478   0.39676
 Alpha virt. eigenvalues --    0.41617   0.42472   0.45137   0.45286   0.48429
 Alpha virt. eigenvalues --    0.49487   0.53443   0.71385   0.72969   0.74225
 Alpha virt. eigenvalues --    0.75023   0.77579   0.79110   0.81759   0.84339
 Alpha virt. eigenvalues --    0.91334   0.91833   0.92882   0.94823   0.97415
 Alpha virt. eigenvalues --    0.98497   1.01235   1.02841   1.04524   1.07475
 Alpha virt. eigenvalues --    1.09837   1.11799   1.12730   1.13324   1.14308
 Alpha virt. eigenvalues --    1.16321   1.17478   1.18226   1.18778   1.19787
 Alpha virt. eigenvalues --    1.20946   1.22174   1.23953   1.26121   1.26502
 Alpha virt. eigenvalues --    1.26540   1.32082   1.33746   1.37825   1.40541
 Alpha virt. eigenvalues --    1.44416   1.54499   1.63653   1.66581   1.73338
 Alpha virt. eigenvalues --    1.78136   1.79594   1.83228   1.88176   1.91951
 Alpha virt. eigenvalues --    1.98388   2.01050   2.04539   2.07271   2.11831
 Alpha virt. eigenvalues --    2.15124   2.17344   2.20203   2.22472   2.23934
 Alpha virt. eigenvalues --    2.27622   2.28479   2.33502   2.35334   2.38529
 Alpha virt. eigenvalues --    2.40168   2.45531   2.49206   2.52426   2.56406
 Alpha virt. eigenvalues --    2.57368   2.61872   2.67764   2.69505   2.71844
 Alpha virt. eigenvalues --    2.76574   2.78470   2.81283   2.81752   2.85349
 Alpha virt. eigenvalues --    2.95899   2.96339   3.02867   3.05220   3.10225
 Alpha virt. eigenvalues --    3.12088   3.17698   3.32091   4.24293   4.54937
 Alpha virt. eigenvalues --    4.66664   4.71168   4.88713   4.93911   5.03586
 Alpha virt. eigenvalues --    5.07653
          Condensed to atoms (all electrons):
               1          2          3          4          5          6
     1  C    5.132544   0.327716  -0.047039  -0.004599   0.000865  -0.058722
     2  C    0.327716   5.100037   0.327843  -0.051704   0.000345   0.001094
     3  C   -0.047039   0.327843   5.150338   0.304509  -0.047201   0.003783
     4  C   -0.004599  -0.051704   0.304509   5.164146   0.360131  -0.055244
     5  C    0.000865   0.000345  -0.047201   0.360131   4.739604   0.359687
     6  C   -0.058722   0.001094   0.003783  -0.055244   0.359687   5.185688
     7  C    0.324737  -0.051046  -0.007367  -0.000852  -0.044498   0.306417
     8  O   -0.000102  -0.000040   0.002234  -0.052014   0.204760  -0.051883
     9  H    0.408452  -0.040610   0.004136  -0.000002  -0.000136   0.004511
    10  H    0.402242  -0.040410  -0.000679   0.000936   0.000062  -0.005546
    11  H   -0.041620   0.404024  -0.044703   0.004533  -0.000111  -0.000014
    12  H   -0.043950   0.403891  -0.041274  -0.000925  -0.000036  -0.000165
    13  H   -0.000791  -0.041261   0.400645  -0.046026  -0.005483   0.000242
    14  H    0.004154  -0.040920   0.408498  -0.038581   0.004123  -0.000191
    15  H   -0.000062   0.004091  -0.039189   0.402529  -0.037209   0.004663
    16  H   -0.001113  -0.003127  -0.038996   0.390522  -0.035430  -0.004372
    17  H    0.000129   0.000306  -0.001018  -0.054319   0.411061  -0.057304
    18  H    0.004986  -0.000225  -0.000200   0.004814  -0.040818   0.395509
    19  H   -0.005512   0.000395   0.000288  -0.004258  -0.036342   0.391659
    20  H   -0.041769  -0.002929  -0.001231   0.000358  -0.002778  -0.040629
    21  H   -0.042776   0.004325   0.000032  -0.000182   0.003965  -0.038540
    22  H    0.000008   0.000002  -0.000221   0.006637  -0.025204  -0.003629
               7          8          9         10         11         12
     1  C    0.324737  -0.000102   0.408452   0.402242  -0.041620  -0.043950
     2  C   -0.051046  -0.000040  -0.040610  -0.040410   0.404024   0.403891
     3  C   -0.007367   0.002234   0.004136  -0.000679  -0.044703  -0.041274
     4  C   -0.000852  -0.052014  -0.000002   0.000936   0.004533  -0.000925
     5  C   -0.044498   0.204760  -0.000136   0.000062  -0.000111  -0.000036
     6  C    0.306417  -0.051883   0.004511  -0.005546  -0.000014  -0.000165
     7  C    5.149868   0.003758  -0.041358  -0.045318  -0.000834   0.004644
     8  O    0.003758   8.433695   0.000001  -0.000013   0.000001   0.000000
     9  H   -0.041358   0.000001   0.546670  -0.030144  -0.006813  -0.000294
    10  H   -0.045318  -0.000013  -0.030144   0.552947   0.004393  -0.005837
    11  H   -0.000834   0.000001  -0.006813   0.004393   0.561917  -0.029862
    12  H    0.004644   0.000000  -0.000294  -0.005837  -0.029862   0.558410
    13  H    0.000586   0.000026  -0.000092  -0.000027  -0.005726   0.004399
    14  H    0.000042  -0.000048  -0.000094  -0.000098  -0.000437  -0.006354
    15  H   -0.000208   0.000630   0.000002  -0.000022  -0.000101  -0.000135
    16  H    0.000661   0.001774  -0.000035   0.000562   0.000056   0.001442
    17  H    0.001695  -0.039829   0.000000  -0.000002  -0.000011   0.000000
    18  H   -0.038632  -0.000846  -0.000124   0.000101   0.000001   0.000004
    19  H   -0.036655   0.001923   0.000044   0.003290   0.000004  -0.000022
    20  H    0.396526  -0.000011   0.000118   0.003963   0.001486   0.000043
    21  H    0.405501  -0.000065  -0.006566  -0.000004  -0.000131  -0.000108
    22  H    0.000019   0.256563  -0.000000  -0.000000  -0.000000  -0.000000
              13         14         15         16         17         18
     1  C   -0.000791   0.004154  -0.000062  -0.001113   0.000129   0.004986
     2  C   -0.041261  -0.040920   0.004091  -0.003127   0.000306  -0.000225
     3  C    0.400645   0.408498  -0.039189  -0.038996  -0.001018  -0.000200
     4  C   -0.046026  -0.038581   0.402529   0.390522  -0.054319   0.004814
     5  C   -0.005483   0.004123  -0.037209  -0.035430   0.411061  -0.040818
     6  C    0.000242  -0.000191   0.004663  -0.004372  -0.057304   0.395509
     7  C    0.000586   0.000042  -0.000208   0.000661   0.001695  -0.038632
     8  O    0.000026  -0.000048   0.000630   0.001774  -0.039829  -0.000846
     9  H   -0.000092  -0.000094   0.000002  -0.000035   0.000000  -0.000124
    10  H   -0.000027  -0.000098  -0.000022   0.000562  -0.000002   0.000101
    11  H   -0.005726  -0.000437  -0.000101   0.000056  -0.000011   0.000001
    12  H    0.004399  -0.006354  -0.000135   0.001442   0.000000   0.000004
    13  H    0.559109  -0.029583  -0.000092   0.003937   0.003662  -0.000016
    14  H   -0.029583   0.538684  -0.006635  -0.000001  -0.000068   0.000003
    15  H   -0.000092  -0.006635   0.522956  -0.028325  -0.003232  -0.000123
    16  H    0.003937  -0.000001  -0.028325   0.536436   0.004344  -0.000031
    17  H    0.003662  -0.000068  -0.003232   0.004344   0.595040  -0.005187
    18  H   -0.000016   0.000003  -0.000123  -0.000031  -0.005187   0.574238
    19  H    0.000015  -0.000005  -0.000110   0.002328   0.004827  -0.032710
    20  H    0.000711  -0.000049  -0.000026   0.000088   0.002140  -0.001247
    21  H   -0.000027   0.000001   0.000005  -0.000031  -0.000198  -0.005710
    22  H   -0.000008   0.000004  -0.000142  -0.000204  -0.003784   0.004272
              19         20         21         22
     1  C   -0.005512  -0.041769  -0.042776   0.000008
     2  C    0.000395  -0.002929   0.004325   0.000002
     3  C    0.000288  -0.001231   0.000032  -0.000221
     4  C   -0.004258   0.000358  -0.000182   0.006637
     5  C   -0.036342  -0.002778   0.003965  -0.025204
     6  C    0.391659  -0.040629  -0.038540  -0.003629
     7  C   -0.036655   0.396526   0.405501   0.000019
     8  O    0.001923  -0.000011  -0.000065   0.256563
     9  H    0.000044   0.000118  -0.006566  -0.000000
    10  H    0.003290   0.003963  -0.000004  -0.000000
    11  H    0.000004   0.001486  -0.000131  -0.000000
    12  H   -0.000022   0.000043  -0.000108  -0.000000
    13  H    0.000015   0.000711  -0.000027  -0.000008
    14  H   -0.000005  -0.000049   0.000001   0.000004
    15  H   -0.000110  -0.000026   0.000005  -0.000142
    16  H    0.002328   0.000088  -0.000031  -0.000204
    17  H    0.004827   0.002140  -0.000198  -0.003784
    18  H   -0.032710  -0.001247  -0.005710   0.004272
    19  H    0.535840   0.003930  -0.002050  -0.000520
    20  H    0.003930   0.549505  -0.028462   0.000001
    21  H   -0.002050  -0.028462   0.547144  -0.000004
    22  H   -0.000520   0.000001  -0.000004   0.335563
 Mulliken charges:
               1
     1  C   -0.317780
     2  C   -0.301798
     3  C   -0.333189
     4  C   -0.330408
     5  C    0.190645
     6  C   -0.337014
     7  C   -0.327686
     8  O   -0.760513
     9  H    0.162334
    10  H    0.159604
    11  H    0.153950
    12  H    0.156130
    13  H    0.155799
    14  H    0.167557
    15  H    0.180734
    16  H    0.169516
    17  H    0.141746
    18  H    0.141940
    19  H    0.173643
    20  H    0.160261
    21  H    0.163881
    22  H    0.430647
 Sum of Mulliken charges =  -0.00000
 Mulliken charges with hydrogens summed into heavy atoms:
               1
     1  C    0.004158
     2  C    0.008282
     3  C   -0.009833
     4  C    0.019842
     5  C    0.332392
     6  C   -0.021431
     7  C   -0.003544
     8  O   -0.329866
 DipInt: DoE/N= T F RetVal/Mat= T F Init=T NMatP=  1 IDeriv=0 Min/MaxMlt=  0  4
 Entering OneElI...
 OneElI was handed   134158976 working-precision words.
 Multipole integrals L=0 to 4 MinM= 0 MaxM= 0.
 Requested accuracy = 0.1000D-12
 ShPair: Thresh= 1.00D-13 NBox=     0 BxSize= 0.00D+00 RnKept= 1.14D+01
         NSMCal=                 1830 NSMKep=                1784
 PrmmSu-InSpLW:  IPartL=    0 NPrtUS=    1 NPrtUL=    1 DoSpLW=F IThBeg=    0 IThEnd=    0 NThAct=    1.
 PrSmSu:  IncTry=   512 NBBP=           1784 NTPThr=   100 NPartT=    1 Incr=          17 LDynOK=F GPUOK=F.
 PrsmSu:  NPrtUS=   1 ThrOK=F IAlg=2 LenDen=           0 ISkipM=0 DoSpLW=F IThBeg=    0 IThEnd=    0.
 Prism:   IPart=     0 DynPar=F LinDyn=F Incr=          17.
 PRISM was handed   134008278 working-precision words and  1784 shell-pairs
 IPart=  0 NShTot=        1784 NBatch=          42 AvBLen=        42.5
 PrsmSu-ThDecC:  IPartSL=    0    0 NPrtUSL=    1    1 IThBeg=    0 IThEnd=    0 CPU=   -1 GPU=   -1 NThAct=    1.
 PrSmSu:  NxtVal=             18.
 Electronic moments (au):
        -64.00000000         -0.32266339          0.47585205          0.41732637
       -610.72473430       -347.97155942       -106.21818613          3.22729111
          2.42973558          0.04600635       -336.41774724        -47.08546837
         -9.57233045        215.98437343         77.41620306        151.02196264
         58.22429469         -3.76713751        -65.38858376        -58.70495929
     -12229.88071309      -4322.48543582       -692.42741075         88.21608489
         79.51411533        -63.52648711        -75.33420771        -43.15429939
         32.36579069      -1903.28366071       -848.95515888       -602.07432534
         78.01909483        123.00759906         25.58900565
 Electronic spatial extent (au):  <R**2>=           1064.9145
 DipInt: DoE/N= F T RetVal/Mat= T F Init=T NMatP=  1 IDeriv=0 Min/MaxMlt=  0  4
 Nuclear    moments (au):
         64.00000000          0.00000000         -0.00000000         -0.00000000
        570.57681858        309.94486989         67.66611353         -0.00000000
         -0.00000000         -0.00000000        356.20626218         44.63980337
          8.43200375       -208.60349886        -56.21739379       -137.75375579
        -53.99112406          3.51390950         63.93722024         58.19099404
      10205.26791304       3069.13384103        326.91346826         25.50161372
        -22.26702894         60.67244544         77.48558066         41.15983402
        -32.10642224       1353.71815101        430.88010133        320.20845265
        -74.48880891       -119.84263041        -21.54806000
 Total      moments (au):
          0.00000000         -0.32266339          0.47585205          0.41732637
        -40.14791572        -38.02668952        -38.55207260          3.22729111
          2.42973558          0.04600635         19.78851495         -2.44566500
         -1.14032670          7.38087457         21.19880928         13.26820686
          4.23317063         -0.25322801         -1.45136352         -0.51396525
      -2024.61280004      -1253.35159479       -365.51394249        113.71769860
         57.24708638         -2.85404166          2.15137295         -1.99446537
          0.25936845       -549.56550970       -418.07505756       -281.86587269
          3.53028591          3.16496866          4.04094565
 Traceless Quadrup. (au):
         -1.23902310          0.88220309          0.35682001          3.22729111
          2.42973558          0.04600635
 Charge=              0.0000 electrons
 Dipole moment (field-independent basis, Debye):
    X=             -0.8201    Y=              1.2095    Z=              1.0607  Tot=              1.8057
 Quadrupole moment (field-independent basis, Debye-Ang):
   XX=            -54.0003   YY=            -51.1472   ZZ=            -51.8539
   XY=              4.3408   XZ=              3.2681   YZ=              0.0619
 Traceless Quadrupole moment (field-independent basis, Debye-Ang):
   XX=             -1.6665   YY=              1.1866   ZZ=              0.4799
   XY=              4.3408   XZ=              3.2681   YZ=              0.0619
 Octapole moment (field-independent basis, Debye-Ang**2):
  XXX=             14.0847  YYY=             -1.7407  ZZZ=             -0.8116  XYY=              5.2534
  XXY=             15.0885  XXZ=              9.4438  XZZ=              3.0130  YZZ=             -0.1802
  YYZ=             -1.0330  XYZ=             -0.3658
 Hexadecapole moment (field-independent basis, Debye-Ang**3):
 XXXX=           -762.5663 YYYY=           -472.0723 ZZZZ=           -137.6701 XXXY=             42.8315
 XXXZ=             21.5620 YYYX=             -1.0750 YYYZ=              0.8103 ZZZX=             -0.7512
 ZZZY=              0.0977 XXYY=           -206.9927 XXZZ=           -157.4671 YYZZ=           -106.1642
 XXYZ=              1.3297 YYXZ=              1.1921 ZZXY=              1.5220
 N-N= 4.117693814787D+02 E-N=-1.636545930366D+03  KE= 3.476803665493D+02
 Entering OneElI...
 OneElI was handed   134169282 working-precision words.
 Calculate electrostatic properties
    NBasis =   148  MinDer = 0  MaxDer = 0
    NGrid  =    22  NMatD  =   1
 Requested accuracy = 0.1000D-12
 ShPair: Thresh= 1.00D-13 NBox=     0 BxSize= 0.00D+00 RnKept= 1.14D+01
         NSMCal=                 1830 NSMKep=                1742
 PrmmSu-InSpLW:  IPartL=    0 NPrtUS=    1 NPrtUL=    1 DoSpLW=F IThBeg=    0 IThEnd=    0 NThAct=    1.
 PrSmSu:  IncTry=   512 NBBP=          38324 NTPThr=   100 NPartT=    1 Incr=         383 LDynOK=F GPUOK=F.
 PrsmSu:  NPrtUS=   1 ThrOK=F IAlg=2 LenDen=           0 ISkipM=0 DoSpLW=F IThBeg=    0 IThEnd=    0.
 Prism:   IPart=     0 DynPar=F LinDyn=F Incr=         383.
 PRISM was handed   134027414 working-precision words and  1742 shell-pairs
 IPart=  0 NShTot=       38324 NBatch=        1742 AvBLen=        22.0
 PrsmSu-ThDecC:  IPartSL=    0    0 NPrtUSL=    1    1 IThBeg=    0 IThEnd=    0 CPU=   -1 GPU=   -1 NThAct=    1.
 PrSmSu:  NxtVal=            384.
 --------------------------------------------------------
       Center         ----      EFG at Nuclei      ----
                      3XX-RR        3YY-RR        3ZZ-RR
 --------------------------------------------------------
     1   Atom        0.008326      0.000690     -0.009016
     2   Atom       -0.004630     -0.001733      0.006362
     3   Atom       -0.001946      0.007297     -0.005351
     4   Atom        0.012682     -0.005847     -0.006835
     5   Atom       -0.271674      0.188259      0.083415
     6   Atom        0.000294     -0.005961      0.005667
     7   Atom       -0.007371      0.009654     -0.002283
     8   Atom       -1.293113      0.261001      1.032112
     9   Atom       -0.176455      0.027399      0.149056
    10   Atom        0.101327      0.144338     -0.245665
    11   Atom       -0.076067      0.142400     -0.066333
    12   Atom        0.077542      0.050840     -0.128382
    13   Atom        0.134523      0.138230     -0.272753
    14   Atom        0.108393     -0.254325      0.145932
    15   Atom        0.019554     -0.160946      0.141393
    16   Atom        0.136924      0.139297     -0.276221
    17   Atom        0.133468      0.141071     -0.274538
    18   Atom       -0.011914     -0.044292      0.056206
    19   Atom        0.137635      0.127970     -0.265605
    20   Atom        0.136418      0.125299     -0.261717
    21   Atom        0.129178     -0.275289      0.146112
    22   Atom        0.019037     -0.156710      0.137674
 --------------------------------------------------------
                        XY            XZ            YZ
 --------------------------------------------------------
     1   Atom       -0.001018     -0.015696     -0.001710
     2   Atom       -0.002394     -0.003927      0.008616
     3   Atom       -0.000512      0.009330      0.008384
     4   Atom       -0.016858      0.002066     -0.022952
     5   Atom        0.032963      0.189381     -0.008486
     6   Atom       -0.034022      0.001730      0.005800
     7   Atom        0.005738      0.005896     -0.003485
     8   Atom       -0.983981      0.459356     -0.936484
     9   Atom        0.189111      0.004026     -0.004552
    10   Atom       -0.008192      0.131108      0.008980
    11   Atom        0.005655      0.218503      0.000729
    12   Atom       -0.078151     -0.141935     -0.155391
    13   Atom       -0.008065     -0.050643     -0.069703
    14   Atom       -0.111275     -0.009732     -0.036606
    15   Atom        0.190455     -0.025097      0.037595
    16   Atom        0.003930     -0.058291      0.050153
    17   Atom        0.001422     -0.033894      0.050172
    18   Atom       -0.164149     -0.122424     -0.135435
    19   Atom       -0.007067      0.042776      0.082845
    20   Atom       -0.015883      0.058769      0.101500
    21   Atom        0.069007     -0.007054      0.032836
    22   Atom       -0.271953     -0.119695     -0.218199
 --------------------------------------------------------


 ---------------------------------------------------------------------------------
              Nuclear Quadrupole Coupling Constant in Principal Axis System
 ---------------------------------------------------------------------------------

       Atom             a.u.   MegaHertz   Gauss  10(-4) cm-1        Axes


 ---------------------------------------------------------------------------------

 No NMR shielding tensors so no spin-rotation constants.
 Leave Link  601 at Thu Nov  2 13:05:24 2023, MaxMem=   134217728 cpu:               0.1 elap:               0.1
 FitSet:  NAtFit=    22 NAtPot=    22 NAtFrz=     0 MDM=    26 TotChg=   0.00000
 Merz-Kollman atomic radii used.
 Atom Element Radius
    1     6    1.50
    2     6    1.50
    3     6    1.50
    4     6    1.50
    5     6    1.50
    6     6    1.50
    7     6    1.50
    8     8    1.40
    9     1    1.20
   10     1    1.20
   11     1    1.20
   12     1    1.20
   13     1    1.20
   14     1    1.20
   15     1    1.20
   16     1    1.20
   17     1    1.20
   18     1    1.20
   19     1    1.20
   20     1    1.20
   21     1    1.20
   22     1    1.20
 Generate VDW surfaces: Layer= 4 Dens= 6 Start= 1.400 Inc= 0.200

 **********************************************************************

            Electrostatic Properties Using The SCF Density.

 **********************************************************************

       Atomic Center    1 is at  -1.692223  0.818915 -0.486251
       Atomic Center    2 is at  -2.010257 -0.620066 -0.092148
       Atomic Center    3 is at  -0.857625 -1.472194  0.428887
       Atomic Center    4 is at   0.472596 -1.273993 -0.288739
       Atomic Center    5 is at   1.298549 -0.123495  0.286409
       Atomic Center    6 is at   0.759833  1.275134 -0.012869
       Atomic Center    7 is at  -0.684126  1.528959  0.411724
       Atomic Center    8 is at   2.612632 -0.220084 -0.270121
       Atomic Center    9 is at  -2.634765  1.381702 -0.472140
       Atomic Center   10 is at  -1.348894  0.845462 -1.527570
       Atomic Center   11 is at  -2.795784 -0.613887  0.674739
       Atomic Center   12 is at  -2.455556 -1.118124 -0.963231
       Atomic Center   13 is at  -0.729170 -1.298734  1.504435
       Atomic Center   14 is at  -1.154864 -2.524776  0.333589
       Atomic Center   15 is at   1.060573 -2.195613 -0.178286
       Atomic Center   16 is at   0.330353 -1.152925 -1.370382
       Atomic Center   17 is at   1.400893 -0.254194  1.370126
       Atomic Center   18 is at   1.405590  2.003115  0.496332
       Atomic Center   19 is at   0.880973  1.494925 -1.082205
       Atomic Center   20 is at  -0.836870  1.271648  1.464984
       Atomic Center   21 is at  -0.863657  2.608410  0.324748
       Atomic Center   22 is at   3.119631  0.514097  0.103760
      ESP Fit Center   23 is at  -2.684169  1.433102  1.259835
      ESP Fit Center   24 is at  -2.839055  1.033295  1.259835
      ESP Fit Center   25 is at  -1.587185  2.756217 -1.289886
      ESP Fit Center   26 is at  -2.006104  2.733504 -1.289886
      ESP Fit Center   27 is at  -3.530809  0.199423 -1.289886
      ESP Fit Center   28 is at  -1.481755  2.552270 -1.652949
      ESP Fit Center   29 is at  -1.902690  2.552270 -1.652949
      ESP Fit Center   30 is at  -3.387571  0.401049 -1.652949
      ESP Fit Center   31 is at  -2.309083  2.169650 -1.971175
      ESP Fit Center   32 is at  -3.177147  0.818915 -1.971175
      ESP Fit Center   33 is at  -3.116997  0.400564 -1.971175
      ESP Fit Center   34 is at  -3.270981 -2.248787  0.317541
      ESP Fit Center   35 is at  -2.917315 -2.469228  0.317541
      ESP Fit Center   36 is at  -3.756343 -1.786763 -0.092148
      ESP Fit Center   37 is at  -3.176955 -2.366152 -0.092148
      ESP Fit Center   38 is at  -2.813893 -2.560213 -0.092148
      ESP Fit Center   39 is at  -3.975449 -0.003483 -0.501838
      ESP Fit Center   40 is at  -4.059339 -0.411695 -0.501838
      ESP Fit Center   41 is at  -4.059339 -0.828437 -0.501838
      ESP Fit Center   42 is at  -3.848844 -0.000574 -0.895783
      ESP Fit Center   43 is at  -3.556340  0.191381 -1.258846
      ESP Fit Center   44 is at  -2.282399 -1.890545  1.913811
      ESP Fit Center   45 is at  -2.106822 -2.275004  1.913811
      ESP Fit Center   46 is at  -1.830043 -2.594425  1.913811
      ESP Fit Center   47 is at  -0.646298 -2.942004  1.913811
      ESP Fit Center   48 is at  -2.403707 -2.283640  1.595584
      ESP Fit Center   49 is at   0.134265 -2.909194  1.595584
      ESP Fit Center   50 is at   0.449340 -2.630063  1.595584
      ESP Fit Center   51 is at   0.688458 -2.283640  1.595584
      ESP Fit Center   52 is at   0.398400 -2.950900  1.232522
      ESP Fit Center   53 is at  -1.259442 -2.168162 -1.511260
      ESP Fit Center   54 is at   0.874414 -1.969962  1.651408
      ESP Fit Center   55 is at  -0.245526 -3.076345 -1.092374
      ESP Fit Center   56 is at  -0.834368 -2.431863 -1.455437
      ESP Fit Center   57 is at  -0.519294 -2.710994 -1.455437
      ESP Fit Center   58 is at  -0.146575 -2.906612 -1.455437
      ESP Fit Center   59 is at   0.262129 -3.007349 -1.455437
      ESP Fit Center   60 is at   1.721794 -2.076804 -1.773663
      ESP Fit Center   61 is at   1.897370 -1.692345 -1.773663
      ESP Fit Center   62 is at   2.207330 -1.837638  1.090044
      ESP Fit Center   63 is at   0.759833  1.275134  2.087131
      ESP Fit Center   64 is at   1.169523  1.275134  2.046780
      ESP Fit Center   65 is at   0.655513  3.332140 -0.422559
      ESP Fit Center   66 is at   2.520663  2.089781 -0.816505
      ESP Fit Center   67 is at   1.278877  3.144563 -0.816505
      ESP Fit Center   68 is at   0.864870  3.212436 -0.816505
      ESP Fit Center   69 is at   0.445952  3.189723 -0.816505
      ESP Fit Center   70 is at   0.288293  2.651190  1.896648
      ESP Fit Center   71 is at  -0.067266  2.879694  1.896648
      ESP Fit Center   72 is at   0.307764  2.965960  1.578421
      ESP Fit Center   73 is at  -1.991090  2.686828  1.578421
      ESP Fit Center   74 is at  -2.230208  2.340406  1.578421
      ESP Fit Center   75 is at  -2.379474  1.946825  1.578421
      ESP Fit Center   76 is at  -2.346554  2.529209  1.215359
      ESP Fit Center   77 is at  -2.522712  2.148451  1.215359
      ESP Fit Center   78 is at  -2.612899  1.738726  1.215359
      ESP Fit Center   79 is at  -2.484973  2.528511  0.821413
      ESP Fit Center   80 is at  -0.576476  2.690680 -1.334363
      ESP Fit Center   81 is at   3.011234 -0.910483  1.520428
      ESP Fit Center   82 is at   3.303031 -0.618686  1.520428
      ESP Fit Center   83 is at   2.718931 -1.367228  1.315552
      ESP Fit Center   84 is at   3.126149 -1.251365  1.315552
      ESP Fit Center   85 is at   3.464014 -0.996221  1.315552
      ESP Fit Center   86 is at   3.686895 -0.636256  1.315552
      ESP Fit Center   87 is at   2.819923 -1.661822  1.041375
      ESP Fit Center   88 is at   3.217711 -1.545021  1.041375
      ESP Fit Center   89 is at   3.566479 -1.320881  1.041375
      ESP Fit Center   90 is at   3.837972 -1.007562  1.041375
      ESP Fit Center   91 is at   4.010195 -0.630445  1.041375
      ESP Fit Center   92 is at   2.719214 -1.914144  0.709879
      ESP Fit Center   93 is at   3.137161 -1.834417  0.709879
      ESP Fit Center   94 is at   3.522150 -1.653254  0.709879
      ESP Fit Center   95 is at   3.849991 -1.382041  0.709879
      ESP Fit Center   96 is at   4.100084 -1.037817  0.709879
      ESP Fit Center   97 is at   4.256715 -0.642213  0.709879
      ESP Fit Center   98 is at   3.027427 -2.037418  0.335552
      ESP Fit Center   99 is at   3.421422 -1.899554  0.335552
      ESP Fit Center  100 is at   3.774861 -1.677473  0.335552
      ESP Fit Center  101 is at   4.070022 -1.382313  0.335552
      ESP Fit Center  102 is at   4.292102 -1.028874  0.335552
      ESP Fit Center  103 is at   4.429967 -0.634879  0.335552
      ESP Fit Center  104 is at   3.134115 -2.098296 -0.065245
      ESP Fit Center  105 is at   3.525684 -1.942281 -0.065245
      ESP Fit Center  106 is at   3.874558 -1.705738 -0.065245
      ESP Fit Center  107 is at   4.164427 -1.399728 -0.065245
      ESP Fit Center  108 is at   4.381735 -1.038558 -0.065245
      ESP Fit Center  109 is at   4.516323 -0.639118 -0.065245
      ESP Fit Center  110 is at   4.561895 -0.220084 -0.474997
      ESP Fit Center  111 is at   2.718163 -2.166488 -0.474997
      ESP Fit Center  112 is at   3.134115 -2.098296 -0.474997
      ESP Fit Center  113 is at   3.525684 -1.942281 -0.474997
      ESP Fit Center  114 is at   3.874558 -1.705738 -0.474997
      ESP Fit Center  115 is at   4.164427 -1.399728 -0.474997
      ESP Fit Center  116 is at   4.381735 -1.038558 -0.474997
      ESP Fit Center  117 is at   4.516323 -0.639118 -0.474997
      ESP Fit Center  118 is at   4.476703 -0.220084 -0.875795
      ESP Fit Center  119 is at   2.612632 -2.084155 -0.875795
      ESP Fit Center  120 is at   3.027427 -2.037418 -0.875795
      ESP Fit Center  121 is at   3.421422 -1.899554 -0.875795
      ESP Fit Center  122 is at   3.774861 -1.677473 -0.875795
      ESP Fit Center  123 is at   4.070022 -1.382313 -0.875795
      ESP Fit Center  124 is at   4.292102 -1.028874 -0.875795
      ESP Fit Center  125 is at   4.429967 -0.634879 -0.875795
      ESP Fit Center  126 is at   4.310042 -0.220084 -1.250121
      ESP Fit Center  127 is at   4.256715  0.202045 -1.250121
      ESP Fit Center  128 is at   2.719214  1.473976 -1.250121
      ESP Fit Center  129 is at   2.719214 -1.914144 -1.250121
      ESP Fit Center  130 is at   3.137161 -1.834417 -1.250121
      ESP Fit Center  131 is at   3.522150 -1.653254 -1.250121
      ESP Fit Center  132 is at   3.849991 -1.382041 -1.250121
      ESP Fit Center  133 is at   4.100084 -1.037817 -1.250121
      ESP Fit Center  134 is at   4.256715 -0.642213 -1.250121
      ESP Fit Center  135 is at   4.069196 -0.220084 -1.581617
      ESP Fit Center  136 is at   4.010195  0.190278 -1.581617
      ESP Fit Center  137 is at   3.837972  0.567394 -1.581617
      ESP Fit Center  138 is at   3.566479  0.880714 -1.581617
      ESP Fit Center  139 is at   3.217711  1.104853 -1.581617
      ESP Fit Center  140 is at   2.819923  1.221654 -1.581617
      ESP Fit Center  141 is at   2.405342 -1.661822 -1.581617
      ESP Fit Center  142 is at   2.819923 -1.661822 -1.581617
      ESP Fit Center  143 is at   3.217711 -1.545021 -1.581617
      ESP Fit Center  144 is at   3.566479 -1.320881 -1.581617
      ESP Fit Center  145 is at   3.837972 -1.007562 -1.581617
      ESP Fit Center  146 is at   4.010195 -0.630445 -1.581617
      ESP Fit Center  147 is at   3.764691 -0.220084 -1.855795
      ESP Fit Center  148 is at   3.686895  0.196088 -1.855795
      ESP Fit Center  149 is at   3.464014  0.556053 -1.855795
      ESP Fit Center  150 is at   3.126149  0.811197 -1.855795
      ESP Fit Center  151 is at   2.718931  0.927061 -1.855795
      ESP Fit Center  152 is at   2.297356  0.887996 -1.855795
      ESP Fit Center  153 is at   1.480189 -0.008394 -1.855795
      ESP Fit Center  154 is at   2.297356 -1.328164 -1.855795
      ESP Fit Center  155 is at   2.718931 -1.367228 -1.855795
      ESP Fit Center  156 is at   3.126149 -1.251365 -1.855795
      ESP Fit Center  157 is at   3.464014 -0.996221 -1.855795
      ESP Fit Center  158 is at   3.686895 -0.636256 -1.855795
      ESP Fit Center  159 is at   3.409836 -0.220084 -2.060670
      ESP Fit Center  160 is at   3.303031  0.178518 -2.060670
      ESP Fit Center  161 is at   3.011234  0.470315 -2.060670
      ESP Fit Center  162 is at   2.612632  0.577120 -2.060670
      ESP Fit Center  163 is at   2.214030  0.470315 -2.060670
      ESP Fit Center  164 is at   1.922234  0.178518 -2.060670
      ESP Fit Center  165 is at   1.815429 -0.220084 -2.060670
      ESP Fit Center  166 is at   1.922234 -0.618686 -2.060670
      ESP Fit Center  167 is at   2.214030 -0.910483 -2.060670
      ESP Fit Center  168 is at   2.612632 -1.017288 -2.060670
      ESP Fit Center  169 is at   3.011234 -0.910483 -2.060670
      ESP Fit Center  170 is at   3.303031 -0.618686 -2.060670
      ESP Fit Center  171 is at   3.020139 -0.220084 -2.187291
      ESP Fit Center  172 is at   2.816386  0.132827 -2.187291
      ESP Fit Center  173 is at   2.408879  0.132827 -2.187291
      ESP Fit Center  174 is at   2.205125 -0.220084 -2.187291
      ESP Fit Center  175 is at   2.408879 -0.572995 -2.187291
      ESP Fit Center  176 is at   2.816386 -0.572995 -2.187291
      ESP Fit Center  177 is at   2.612632 -0.220084 -2.230121
      ESP Fit Center  178 is at  -2.852173  1.758263  1.150616
      ESP Fit Center  179 is at  -3.069581  1.381702  1.150616
      ESP Fit Center  180 is at  -2.634765  2.221702  0.982783
      ESP Fit Center  181 is at  -3.054765  2.109163  0.982783
      ESP Fit Center  182 is at  -3.362226  1.801702  0.982783
      ESP Fit Center  183 is at  -3.474765  1.381702  0.982783
      ESP Fit Center  184 is at  -3.362226  0.961702  0.982783
      ESP Fit Center  185 is at  -2.525155  2.564574  0.715800
      ESP Fit Center  186 is at  -2.959860  2.524292  0.715800
      ESP Fit Center  187 is at  -3.350658  2.329698  0.715800
      ESP Fit Center  188 is at  -3.644771  2.007071  0.715800
      ESP Fit Center  189 is at  -3.802477  1.599985  0.715800
      ESP Fit Center  190 is at  -3.802477  1.163418  0.715800
      ESP Fit Center  191 is at  -2.958515  2.800146  0.367860
      ESP Fit Center  192 is at  -3.362226  2.641702  0.367860
      ESP Fit Center  193 is at  -3.701298  2.371300  0.367860
      ESP Fit Center  194 is at  -3.945605  2.012969  0.367860
      ESP Fit Center  195 is at  -4.073437  1.598547  0.367860
      ESP Fit Center  196 is at  -4.073437  1.164857  0.367860
      ESP Fit Center  197 is at  -3.945605  0.750434  0.367860
      ESP Fit Center  198 is at  -2.634765  3.004457 -0.037324
      ESP Fit Center  199 is at  -3.054765  2.949163 -0.037324
      ESP Fit Center  200 is at  -3.446142  2.787049 -0.037324
      ESP Fit Center  201 is at  -3.782226  2.529163 -0.037324
      ESP Fit Center  202 is at  -4.040112  2.193079 -0.037324
      ESP Fit Center  203 is at  -4.202226  1.801702 -0.037324
      ESP Fit Center  204 is at  -4.257520  1.381702 -0.037324
      ESP Fit Center  205 is at  -4.202226  0.961702 -0.037324
      ESP Fit Center  206 is at  -4.040112  0.570324 -0.037324
      ESP Fit Center  207 is at  -2.529277  3.058387 -0.472140
      ESP Fit Center  208 is at  -2.949565  3.031944 -0.472140
      ESP Fit Center  209 is at  -3.350074  2.901811 -0.472140
      ESP Fit Center  210 is at  -3.705637  2.676164 -0.472140
      ESP Fit Center  211 is at  -3.993913  2.369181 -0.472140
      ESP Fit Center  212 is at  -4.196789  2.000151 -0.472140
      ESP Fit Center  213 is at  -4.301517  1.592262 -0.472140
      ESP Fit Center  214 is at  -4.301517  1.171142 -0.472140
      ESP Fit Center  215 is at  -4.196789  0.763252 -0.472140
      ESP Fit Center  216 is at  -3.993913  0.394223 -0.472140
      ESP Fit Center  217 is at  -2.214765  2.949163 -0.906956
      ESP Fit Center  218 is at  -2.634765  3.004457 -0.906956
      ESP Fit Center  219 is at  -3.054765  2.949163 -0.906956
      ESP Fit Center  220 is at  -3.446142  2.787049 -0.906956
      ESP Fit Center  221 is at  -3.782226  2.529163 -0.906956
      ESP Fit Center  222 is at  -4.040112  2.193079 -0.906956
      ESP Fit Center  223 is at  -4.202226  1.801702 -0.906956
      ESP Fit Center  224 is at  -4.257520  1.381702 -0.906956
      ESP Fit Center  225 is at  -4.202226  0.961702 -0.906956
      ESP Fit Center  226 is at  -4.040112  0.570324 -0.906956
      ESP Fit Center  227 is at  -3.782226  0.234240 -0.906956
      ESP Fit Center  228 is at  -2.103222  2.736051 -1.312140
      ESP Fit Center  229 is at  -2.526038  2.832556 -1.312140
      ESP Fit Center  230 is at  -2.958515  2.800146 -1.312140
      ESP Fit Center  231 is at  -3.362226  2.641702 -1.312140
      ESP Fit Center  232 is at  -3.701298  2.371300 -1.312140
      ESP Fit Center  233 is at  -3.945605  2.012969 -1.312140
      ESP Fit Center  234 is at  -4.073437  1.598547 -1.312140
      ESP Fit Center  235 is at  -4.073437  1.164857 -1.312140
      ESP Fit Center  236 is at  -3.945605  0.750434 -1.312140
      ESP Fit Center  237 is at  -3.701298  0.392103 -1.312140
      ESP Fit Center  238 is at  -2.525155  2.564574 -1.660079
      ESP Fit Center  239 is at  -2.959860  2.524292 -1.660079
      ESP Fit Center  240 is at  -3.350658  2.329698 -1.660079
      ESP Fit Center  241 is at  -3.644771  2.007071 -1.660079
      ESP Fit Center  242 is at  -3.802477  1.599985 -1.660079
      ESP Fit Center  243 is at  -3.802477  1.163418 -1.660079
      ESP Fit Center  244 is at  -3.644771  0.756332 -1.660079
      ESP Fit Center  245 is at  -2.634765  2.221702 -1.927062
      ESP Fit Center  246 is at  -3.054765  2.109163 -1.927062
      ESP Fit Center  247 is at  -3.362226  1.801702 -1.927062
      ESP Fit Center  248 is at  -3.474765  1.381702 -1.927062
      ESP Fit Center  249 is at  -3.362226  0.961702 -1.927062
      ESP Fit Center  250 is at  -2.852173  1.758263 -2.094895
      ESP Fit Center  251 is at  -3.069581  1.381702 -2.094895
      ESP Fit Center  252 is at  -0.829745  2.443237 -1.527570
      ESP Fit Center  253 is at  -0.537516  2.250810 -1.962386
      ESP Fit Center  254 is at  -0.928894  2.412924 -1.962386
      ESP Fit Center  255 is at  -1.348894  2.468218 -1.962386
      ESP Fit Center  256 is at  -1.768894  2.412924 -1.962386
      ESP Fit Center  257 is at  -2.160272  2.250810 -1.962386
      ESP Fit Center  258 is at  -0.441765  1.982967 -2.367570
      ESP Fit Center  259 is at  -0.817351  2.199812 -2.367570
      ESP Fit Center  260 is at  -1.240168  2.296317 -2.367570
      ESP Fit Center  261 is at  -1.672645  2.263907 -2.367570
      ESP Fit Center  262 is at  -2.076355  2.105462 -2.367570
      ESP Fit Center  263 is at  -2.415428  1.835061 -2.367570
      ESP Fit Center  264 is at  -2.659734  1.476730 -2.367570
      ESP Fit Center  265 is at  -2.787566  1.062307 -2.367570
      ESP Fit Center  266 is at  -2.787566  0.628617 -2.367570
      ESP Fit Center  267 is at  -2.659734  0.214195 -2.367570
      ESP Fit Center  268 is at  -2.415428 -0.144137 -2.367570
      ESP Fit Center  269 is at  -1.672645 -0.572982 -2.367570
      ESP Fit Center  270 is at  -1.240168 -0.605392 -2.367570
      ESP Fit Center  271 is at   0.041391  0.416616 -2.367570
      ESP Fit Center  272 is at  -0.160955  0.845462 -2.715510
      ESP Fit Center  273 is at  -0.241174  1.274595 -2.715510
      ESP Fit Center  274 is at  -0.470996  1.645772 -2.715510
      ESP Fit Center  275 is at  -0.819384  1.908862 -2.715510
      ESP Fit Center  276 is at  -1.239285  2.028334 -2.715510
      ESP Fit Center  277 is at  -1.673989  1.988053 -2.715510
      ESP Fit Center  278 is at  -2.064787  1.793458 -2.715510
      ESP Fit Center  279 is at  -2.358900  1.470832 -2.715510
      ESP Fit Center  280 is at  -2.516606  1.063746 -2.715510
      ESP Fit Center  281 is at  -2.516606  0.627179 -2.715510
      ESP Fit Center  282 is at  -2.358900  0.220093 -2.715510
      ESP Fit Center  283 is at  -2.064787 -0.102534 -2.715510
      ESP Fit Center  284 is at  -1.673989 -0.297128 -2.715510
      ESP Fit Center  285 is at  -1.239285 -0.337410 -2.715510
      ESP Fit Center  286 is at  -0.819384 -0.217937 -2.715510
      ESP Fit Center  287 is at  -0.470996  0.045153 -2.715510
      ESP Fit Center  288 is at  -0.241174  0.416329 -2.715510
      ESP Fit Center  289 is at  -0.508894  0.845462 -2.982493
      ESP Fit Center  290 is at  -0.621433  1.265462 -2.982493
      ESP Fit Center  291 is at  -0.928894  1.572924 -2.982493
      ESP Fit Center  292 is at  -1.348894  1.685462 -2.982493
      ESP Fit Center  293 is at  -1.768894  1.572924 -2.982493
      ESP Fit Center  294 is at  -2.076355  1.265462 -2.982493
      ESP Fit Center  295 is at  -2.188894  0.845462 -2.982493
      ESP Fit Center  296 is at  -2.076355  0.425462 -2.982493
      ESP Fit Center  297 is at  -1.768894  0.118001 -2.982493
      ESP Fit Center  298 is at  -1.348894  0.005462 -2.982493
      ESP Fit Center  299 is at  -0.928894  0.118001 -2.982493
      ESP Fit Center  300 is at  -0.621433  0.425462 -2.982493
      ESP Fit Center  301 is at  -0.914078  0.845462 -3.150326
      ESP Fit Center  302 is at  -1.131486  1.222024 -3.150326
      ESP Fit Center  303 is at  -1.566302  1.222024 -3.150326
      ESP Fit Center  304 is at  -1.783710  0.845462 -3.150326
      ESP Fit Center  305 is at  -1.566302  0.468901 -3.150326
      ESP Fit Center  306 is at  -1.131486  0.468901 -3.150326
      ESP Fit Center  307 is at  -1.348894  0.845462 -3.207570
      ESP Fit Center  308 is at  -2.795784 -0.613887  2.354739
      ESP Fit Center  309 is at  -2.360968 -0.613887  2.297494
      ESP Fit Center  310 is at  -2.578376 -0.237326  2.297494
      ESP Fit Center  311 is at  -3.013192 -0.237326  2.297494
      ESP Fit Center  312 is at  -3.230600 -0.613887  2.297494
      ESP Fit Center  313 is at  -3.013192 -0.990449  2.297494
      ESP Fit Center  314 is at  -2.578376 -0.990449  2.297494
      ESP Fit Center  315 is at  -2.068323 -0.193887  2.129661
      ESP Fit Center  316 is at  -2.375784  0.113574  2.129661
      ESP Fit Center  317 is at  -2.795784  0.226113  2.129661
      ESP Fit Center  318 is at  -3.215784  0.113574  2.129661
      ESP Fit Center  319 is at  -3.523245 -0.193887  2.129661
      ESP Fit Center  320 is at  -3.635784 -0.613887  2.129661
      ESP Fit Center  321 is at  -3.523245 -1.033887  2.129661
      ESP Fit Center  322 is at  -3.215784 -1.341349  2.129661
      ESP Fit Center  323 is at  -2.795784 -1.453887  2.129661
      ESP Fit Center  324 is at  -2.375784 -1.341349  2.129661
      ESP Fit Center  325 is at  -2.266274  0.449512  1.862678
      ESP Fit Center  326 is at  -2.686175  0.568985  1.862678
      ESP Fit Center  327 is at  -3.120879  0.528703  1.862678
      ESP Fit Center  328 is at  -3.511677  0.334109  1.862678
      ESP Fit Center  329 is at  -3.805790  0.011482  1.862678
      ESP Fit Center  330 is at  -3.963496 -0.395604  1.862678
      ESP Fit Center  331 is at  -3.963496 -0.832171  1.862678
      ESP Fit Center  332 is at  -3.805790 -1.239257  1.862678
      ESP Fit Center  333 is at  -3.511677 -1.561883  1.862678
      ESP Fit Center  334 is at  -3.120879 -1.756478  1.862678
      ESP Fit Center  335 is at  -2.686175 -1.796759  1.862678
      ESP Fit Center  336 is at  -2.687057  0.836967  1.514739
      ESP Fit Center  337 is at  -3.119535  0.804557  1.514739
      ESP Fit Center  338 is at  -3.523245  0.646113  1.514739
      ESP Fit Center  339 is at  -3.862318  0.375711  1.514739
      ESP Fit Center  340 is at  -4.106624  0.017380  1.514739
      ESP Fit Center  341 is at  -4.234456 -0.397042  1.514739
      ESP Fit Center  342 is at  -4.234456 -0.830732  1.514739
      ESP Fit Center  343 is at  -4.106624 -1.245155  1.514739
      ESP Fit Center  344 is at  -3.862318 -1.603486  1.514739
      ESP Fit Center  345 is at  -3.523245 -1.873887  1.514739
      ESP Fit Center  346 is at  -3.119535 -2.032332  1.514739
      ESP Fit Center  347 is at  -2.687057 -2.064742  1.514739
      ESP Fit Center  348 is at  -3.215784  0.953574  1.109555
      ESP Fit Center  349 is at  -3.607162  0.791460  1.109555
      ESP Fit Center  350 is at  -3.943245  0.533574  1.109555
      ESP Fit Center  351 is at  -4.201131  0.197490  1.109555
      ESP Fit Center  352 is at  -4.363245 -0.193887  1.109555
      ESP Fit Center  353 is at  -4.418539 -0.613887  1.109555
      ESP Fit Center  354 is at  -4.363245 -1.033887  1.109555
      ESP Fit Center  355 is at  -4.201131 -1.425265  1.109555
      ESP Fit Center  356 is at  -3.943245 -1.761349  1.109555
      ESP Fit Center  357 is at  -3.607162 -2.019235  1.109555
      ESP Fit Center  358 is at  -3.215784 -2.181349  1.109555
      ESP Fit Center  359 is at  -2.795784 -2.236643  1.109555
      ESP Fit Center  360 is at  -3.866656  0.680575  0.674739
      ESP Fit Center  361 is at  -4.154933  0.373592  0.674739
      ESP Fit Center  362 is at  -4.357808  0.004562  0.674739
      ESP Fit Center  363 is at  -4.462537 -0.403327  0.674739
      ESP Fit Center  364 is at  -4.462537 -0.824447  0.674739
      ESP Fit Center  365 is at  -4.357808 -1.232337  0.674739
      ESP Fit Center  366 is at  -4.154933 -1.601367  0.674739
      ESP Fit Center  367 is at  -3.866656 -1.908350  0.674739
      ESP Fit Center  368 is at  -3.511093 -2.133997  0.674739
      ESP Fit Center  369 is at  -3.110585 -2.264130  0.674739
      ESP Fit Center  370 is at  -3.943245  0.533574  0.239923
      ESP Fit Center  371 is at  -4.201131  0.197490  0.239923
      ESP Fit Center  372 is at  -4.363245 -0.193887  0.239923
      ESP Fit Center  373 is at  -4.418539 -0.613887  0.239923
      ESP Fit Center  374 is at  -4.363245 -1.033887  0.239923
      ESP Fit Center  375 is at  -4.201131 -1.425265  0.239923
      ESP Fit Center  376 is at  -3.943245 -1.761349  0.239923
      ESP Fit Center  377 is at  -3.607162 -2.019235  0.239923
      ESP Fit Center  378 is at  -4.106624  0.017380 -0.165261
      ESP Fit Center  379 is at  -4.234456 -0.397042 -0.165261
      ESP Fit Center  380 is at  -4.234456 -0.830732 -0.165261
      ESP Fit Center  381 is at  -4.106624 -1.245155 -0.165261
      ESP Fit Center  382 is at  -3.522090 -2.107723 -0.123231
      ESP Fit Center  383 is at  -3.183018 -2.378124 -0.123231
      ESP Fit Center  384 is at  -4.078312 -1.118124 -0.528415
      ESP Fit Center  385 is at  -4.023018 -1.538124 -0.528415
      ESP Fit Center  386 is at  -3.860904 -1.929502 -0.528415
      ESP Fit Center  387 is at  -3.603018 -2.265586 -0.528415
      ESP Fit Center  388 is at  -3.266934 -2.523472 -0.528415
      ESP Fit Center  389 is at  -2.875556 -2.685586 -0.528415
      ESP Fit Center  390 is at  -4.017581 -0.499675 -0.963231
      ESP Fit Center  391 is at  -4.122309 -0.907565 -0.963231
      ESP Fit Center  392 is at  -4.122309 -1.328684 -0.963231
      ESP Fit Center  393 is at  -4.017581 -1.736574 -0.963231
      ESP Fit Center  394 is at  -3.814705 -2.105604 -0.963231
      ESP Fit Center  395 is at  -3.526429 -2.412587 -0.963231
      ESP Fit Center  396 is at  -3.170865 -2.638234 -0.963231
      ESP Fit Center  397 is at  -2.770357 -2.768367 -0.963231
      ESP Fit Center  398 is at  -2.350068 -2.794809 -0.963231
      ESP Fit Center  399 is at  -3.603018  0.029337 -1.398047
      ESP Fit Center  400 is at  -3.860904 -0.306747 -1.398047
      ESP Fit Center  401 is at  -4.023018 -0.698124 -1.398047
      ESP Fit Center  402 is at  -4.078312 -1.118124 -1.398047
      ESP Fit Center  403 is at  -4.023018 -1.538124 -1.398047
      ESP Fit Center  404 is at  -3.860904 -1.929502 -1.398047
      ESP Fit Center  405 is at  -3.603018 -2.265586 -1.398047
      ESP Fit Center  406 is at  -3.266934 -2.523472 -1.398047
      ESP Fit Center  407 is at  -2.875556 -2.685586 -1.398047
      ESP Fit Center  408 is at  -2.455556 -2.740880 -1.398047
      ESP Fit Center  409 is at  -2.035556 -2.685586 -1.398047
      ESP Fit Center  410 is at  -1.644179 -2.523472 -1.398047
      ESP Fit Center  411 is at  -3.183018  0.141876 -1.803231
      ESP Fit Center  412 is at  -3.522090 -0.128526 -1.803231
      ESP Fit Center  413 is at  -3.766396 -0.486857 -1.803231
      ESP Fit Center  414 is at  -3.894229 -0.901279 -1.803231
      ESP Fit Center  415 is at  -3.894229 -1.334969 -1.803231
      ESP Fit Center  416 is at  -3.766396 -1.749392 -1.803231
      ESP Fit Center  417 is at  -3.522090 -2.107723 -1.803231
      ESP Fit Center  418 is at  -3.183018 -2.378124 -1.803231
      ESP Fit Center  419 is at  -2.779307 -2.536569 -1.803231
      ESP Fit Center  420 is at  -2.346830 -2.568979 -1.803231
      ESP Fit Center  421 is at  -1.924013 -2.472474 -1.803231
      ESP Fit Center  422 is at  -1.548427 -2.255629 -1.803231
      ESP Fit Center  423 is at  -1.253443 -1.937712 -1.803231
      ESP Fit Center  424 is at  -1.267617 -1.118124 -2.151170
      ESP Fit Center  425 is at  -2.780651  0.024466 -2.151170
      ESP Fit Center  426 is at  -3.171450 -0.170128 -2.151170
      ESP Fit Center  427 is at  -3.465563 -0.492755 -2.151170
      ESP Fit Center  428 is at  -3.623269 -0.899841 -2.151170
      ESP Fit Center  429 is at  -3.623269 -1.336408 -2.151170
      ESP Fit Center  430 is at  -3.465563 -1.743494 -2.151170
      ESP Fit Center  431 is at  -3.171450 -2.066121 -2.151170
      ESP Fit Center  432 is at  -2.780651 -2.260715 -2.151170
      ESP Fit Center  433 is at  -2.345947 -2.300996 -2.151170
      ESP Fit Center  434 is at  -1.926046 -2.181524 -2.151170
      ESP Fit Center  435 is at  -1.577658 -1.918434 -2.151170
      ESP Fit Center  436 is at  -1.347836 -1.547258 -2.151170
      ESP Fit Center  437 is at  -1.615556 -1.118124 -2.418153
      ESP Fit Center  438 is at  -1.728095 -0.698124 -2.418153
      ESP Fit Center  439 is at  -2.455556 -0.278124 -2.418153
      ESP Fit Center  440 is at  -2.875556 -0.390663 -2.418153
      ESP Fit Center  441 is at  -3.183018 -0.698124 -2.418153
      ESP Fit Center  442 is at  -3.295556 -1.118124 -2.418153
      ESP Fit Center  443 is at  -3.183018 -1.538124 -2.418153
      ESP Fit Center  444 is at  -2.875556 -1.845586 -2.418153
      ESP Fit Center  445 is at  -2.455556 -1.958124 -2.418153
      ESP Fit Center  446 is at  -2.035556 -1.845586 -2.418153
      ESP Fit Center  447 is at  -1.728095 -1.538124 -2.418153
      ESP Fit Center  448 is at  -2.020740 -1.118124 -2.585986
      ESP Fit Center  449 is at  -2.238148 -0.741563 -2.585986
      ESP Fit Center  450 is at  -2.672964 -0.741563 -2.585986
      ESP Fit Center  451 is at  -2.890372 -1.118124 -2.585986
      ESP Fit Center  452 is at  -2.672964 -1.494686 -2.585986
      ESP Fit Center  453 is at  -2.238148 -1.494686 -2.585986
      ESP Fit Center  454 is at  -2.455556 -1.118124 -2.643231
      ESP Fit Center  455 is at  -0.729170 -1.298734  3.184435
      ESP Fit Center  456 is at  -0.294354 -1.298734  3.127190
      ESP Fit Center  457 is at  -0.511762 -0.922173  3.127190
      ESP Fit Center  458 is at  -0.946578 -0.922173  3.127190
      ESP Fit Center  459 is at  -1.163986 -1.298734  3.127190
      ESP Fit Center  460 is at  -0.946578 -1.675296  3.127190
      ESP Fit Center  461 is at  -0.511762 -1.675296  3.127190
      ESP Fit Center  462 is at   0.110830 -1.298734  2.959358
      ESP Fit Center  463 is at  -0.001708 -0.878734  2.959358
      ESP Fit Center  464 is at  -0.309170 -0.571273  2.959358
      ESP Fit Center  465 is at  -0.729170 -0.458734  2.959358
      ESP Fit Center  466 is at  -1.149170 -0.571273  2.959358
      ESP Fit Center  467 is at  -1.456631 -0.878734  2.959358
      ESP Fit Center  468 is at  -1.569170 -1.298734  2.959358
      ESP Fit Center  469 is at  -1.456631 -1.718734  2.959358
      ESP Fit Center  470 is at  -1.149170 -2.026196  2.959358
      ESP Fit Center  471 is at  -0.729170 -2.138734  2.959358
      ESP Fit Center  472 is at  -0.309170 -2.026196  2.959358
      ESP Fit Center  473 is at  -0.001708 -1.718734  2.959358
      ESP Fit Center  474 is at   0.458770 -1.298734  2.692374
      ESP Fit Center  475 is at   0.378551 -0.869601  2.692374
      ESP Fit Center  476 is at   0.148728 -0.498425  2.692374
      ESP Fit Center  477 is at  -0.199659 -0.235335  2.692374
      ESP Fit Center  478 is at  -0.619560 -0.115863  2.692374
      ESP Fit Center  479 is at  -1.054265 -0.156144  2.692374
      ESP Fit Center  480 is at  -1.445063 -0.350738  2.692374
      ESP Fit Center  481 is at  -1.739176 -0.673365  2.692374
      ESP Fit Center  482 is at  -1.896882 -1.080451  2.692374
      ESP Fit Center  483 is at  -1.896882 -1.517018  2.692374
      ESP Fit Center  484 is at  -1.739176 -1.924104  2.692374
      ESP Fit Center  485 is at  -1.445063 -2.246730  2.692374
      ESP Fit Center  486 is at  -1.054265 -2.441325  2.692374
      ESP Fit Center  487 is at  -0.619560 -2.481606  2.692374
      ESP Fit Center  488 is at  -0.199659 -2.362134  2.692374
      ESP Fit Center  489 is at   0.148728 -2.099044  2.692374
      ESP Fit Center  490 is at   0.378551 -1.727868  2.692374
      ESP Fit Center  491 is at  -1.456631 -0.038734  2.344435
      ESP Fit Center  492 is at  -1.795703 -0.309136  2.344435
      ESP Fit Center  493 is at  -2.040010 -0.667467  2.344435
      ESP Fit Center  494 is at  -2.167842 -1.081889  2.344435
      ESP Fit Center  495 is at  -2.167842 -1.515579  2.344435
      ESP Fit Center  496 is at  -2.040010 -1.930002  2.344435
      ESP Fit Center  497 is at  -1.795703 -2.288333  2.344435
[...]
 4614 Fit       0.001094
 4615 Fit       0.001072
 4616 Fit       0.000943
 4617 Fit       0.000691
 4618 Fit       0.000302
 4619 Fit      -0.000226
 4620 Fit      -0.000891
 4621 Fit      -0.001678
 4622 Fit       0.001101
 4623 Fit       0.000966
 4624 Fit       0.000775
 4625 Fit       0.000469
 4626 Fit       0.000014
 4627 Fit      -0.000610
 4628 Fit      -0.001420
 4629 Fit       0.000954
 4630 Fit       0.000626
 4631 Fit       0.000240
 4632 Fit      -0.000291
 4633 Fit      -0.001015
 4634 Fit      -0.001975
 4635 Fit       0.000226
 4636 Fit      -0.000371
 4637 Fit      -0.001160
 4638 Fit      -0.000053
 4639 Fit      -0.000897
 4640 Fit      -0.002416
 4641 Fit      -0.003252
 4642 Fit      -0.002313
 4643 Fit      -0.003234
 4644 Fit      -0.004440
 4645 Fit      -0.005732
 4646 Fit      -0.001962
 4647 Fit      -0.002638
 4648 Fit      -0.003653
 4649 Fit      -0.005035
 4650 Fit      -0.006795
 4651 Fit      -0.008847
 4652 Fit      -0.001967
 4653 Fit      -0.002697
 4654 Fit      -0.003726
 4655 Fit      -0.005136
 4656 Fit      -0.007020
 4657 Fit      -0.009480
 4658 Fit      -0.012598
 4659 Fit      -0.001376
 4660 Fit      -0.001987
 4661 Fit      -0.002753
 4662 Fit      -0.003765
 4663 Fit      -0.005120
 4664 Fit      -0.006934
 4665 Fit      -0.009358
 4666 Fit      -0.012604
 4667 Fit      -0.001724
 4668 Fit      -0.002483
 4669 Fit      -0.003411
 4670 Fit      -0.004622
 4671 Fit      -0.006238
 4672 Fit      -0.008415
 4673 Fit      -0.011373
 4674 Fit      -0.015462
 4675 Fit      -0.001561
 4676 Fit      -0.002336
 4677 Fit      -0.003194
 4678 Fit      -0.004260
 4679 Fit      -0.005654
 4680 Fit      -0.007511
 4681 Fit      -0.010013
 4682 Fit      -0.013437
 4683 Fit      -0.018247
 4684 Fit      -0.002148
 4685 Fit      -0.002950
 4686 Fit      -0.003874
 4687 Fit      -0.005037
 4688 Fit      -0.006559
 4689 Fit      -0.008584
 4690 Fit      -0.011315
 4691 Fit      -0.015063
 4692 Fit      -0.020360
 4693 Fit      -0.002493
 4694 Fit      -0.003309
 4695 Fit      -0.004245
 4696 Fit      -0.005424
 4697 Fit      -0.006970
 4698 Fit      -0.009038
 4699 Fit      -0.011841
 4700 Fit      -0.015706
 4701 Fit      -0.021186
 4702 Fit      -0.002794
 4703 Fit      -0.003598
 4704 Fit      -0.004508
 4705 Fit      -0.005645
 4706 Fit      -0.007141
 4707 Fit      -0.009151
 4708 Fit      -0.011888
 4709 Fit      -0.015667
 4710 Fit      -0.021008
 4711 Fit      -0.004041
 4712 Fit      -0.004904
 4713 Fit      -0.005979
 4714 Fit      -0.007391
 4715 Fit      -0.009289
 4716 Fit      -0.011868
 4717 Fit      -0.015405
 4718 Fit      -0.020327
 4719 Fit      -0.004943
 4720 Fit      -0.005884
 4721 Fit      -0.007111
 4722 Fit      -0.008773
 4723 Fit      -0.011058
 4724 Fit      -0.014210
 4725 Fit      -0.018576
 4726 Fit      -0.006953
 4727 Fit      -0.008357
 4728 Fit      -0.010301
 4729 Fit      -0.013001
 4730 Fit      -0.016714
 4731 Fit      -0.021724
 4732 Fit      -0.011446
 4733 Fit      -0.000344
 4734 Fit      -0.001353
 4735 Fit      -0.002450
 4736 Fit      -0.003684
 4737 Fit      -0.021451
 4738 Fit      -0.000161
 4739 Fit      -0.001113
 4740 Fit      -0.002194
 4741 Fit      -0.003426
 4742 Fit      -0.004841
 4743 Fit      -0.006482
 4744 Fit      -0.008407
 4745 Fit      -0.010685
 4746 Fit      -0.013347
 4747 Fit      -0.016304
 4748 Fit      -0.019231
 4749 Fit      -0.015467
 4750 Fit      -0.015310
 4751 Fit      -0.013421
 4752 Fit      -0.010162
 4753 Fit      -0.006440
 4754 Fit      -0.000684
 4755 Fit       0.001129
 4756 Fit       0.000604
 4757 Fit      -0.000057
 4758 Fit      -0.000900
 4759 Fit      -0.001921
 4760 Fit      -0.003120
 4761 Fit      -0.004512
 4762 Fit      -0.006120
 4763 Fit      -0.007968
 4764 Fit      -0.010044
 4765 Fit      -0.012232
 4766 Fit      -0.014224
 4767 Fit      -0.011115
 4768 Fit      -0.010566
 4769 Fit      -0.008630
 4770 Fit      -0.005891
 4771 Fit      -0.003206
 4772 Fit      -0.001141
 4773 Fit       0.000138
 4774 Fit       0.000634
 4775 Fit       0.000547
 4776 Fit       0.000149
 4777 Fit      -0.000475
 4778 Fit      -0.001338
 4779 Fit      -0.002440
 4780 Fit      -0.003772
 4781 Fit      -0.005323
 4782 Fit      -0.007053
 4783 Fit      -0.008836
 4784 Fit      -0.010363
 4785 Fit      -0.007857
 4786 Fit      -0.006977
 4787 Fit      -0.004889
 4788 Fit      -0.002654
 4789 Fit      -0.001138
 4790 Fit      -0.000575
 4791 Fit      -0.000770
 4792 Fit      -0.001497
 4793 Fit      -0.002654
 4794 Fit      -0.004149
 4795 Fit      -0.005814
 4796 Fit      -0.007272
 4797 Fit      -0.005369
 4798 Fit      -0.004075
 4799 Fit      -0.002301
 4800 Fit      -0.001943
 4801 Fit      -0.002978
 4802 Fit      -0.004609
 4803 Fit      -0.003443
 4804 Fit       0.005499
 4805 Fit       0.005232
 4806 Fit       0.006034
 4807 Fit       0.006212
 4808 Fit       0.005827
 4809 Fit       0.005055
 4810 Fit       0.004651
 4811 Fit       0.005004
 4812 Fit       0.006064
 4813 Fit       0.006706
 4814 Fit       0.006876
 4815 Fit       0.006820
 4816 Fit       0.006649
 4817 Fit       0.006260
 4818 Fit       0.005569
 4819 Fit       0.004674
 4820 Fit       0.003919
 4821 Fit       0.003637
 4822 Fit       0.004030
 4823 Fit       0.004812
 4824 Fit       0.006163
 4825 Fit       0.007148
 4826 Fit       0.007589
 4827 Fit       0.007603
 4828 Fit       0.007450
 4829 Fit       0.007349
 4830 Fit       0.007319
 4831 Fit       0.007189
 4832 Fit       0.004337
 4833 Fit       0.003385
 4834 Fit       0.002712
 4835 Fit       0.002425
 4836 Fit       0.002668
 4837 Fit       0.003515
 4838 Fit       0.004665
 4839 Fit       0.006486
 4840 Fit       0.007903
 4841 Fit       0.008654
 4842 Fit       0.008775
 4843 Fit       0.008490
 4844 Fit       0.008084
 4845 Fit       0.007823
 4846 Fit       0.002210
 4847 Fit       0.001467
 4848 Fit       0.001014
 4849 Fit       0.001007
 4850 Fit       0.001620
 4851 Fit       0.002903
 4852 Fit       0.004584
 4853 Fit       0.007159
 4854 Fit       0.009214
 4855 Fit       0.010366
 4856 Fit       0.010608
 4857 Fit       0.010194
 4858 Fit       0.009445
 4859 Fit       0.001143
 4860 Fit       0.000244
 4861 Fit      -0.000499
 4862 Fit      -0.000910
 4863 Fit      -0.000736
 4864 Fit       0.000250
 4865 Fit       0.002103
 4866 Fit       0.004597
 4867 Fit       0.008309
 4868 Fit       0.011341
 4869 Fit       0.013101
 4870 Fit       0.013530
 4871 Fit       0.000021
 4872 Fit      -0.001023
 4873 Fit      -0.002088
 4874 Fit      -0.002989
 4875 Fit      -0.003429
 4876 Fit      -0.003062
 4877 Fit      -0.001591
 4878 Fit       0.001062
 4879 Fit      -0.003070
 4880 Fit      -0.004664
 4881 Fit      -0.006110
 4882 Fit      -0.006954
 4883 Fit      -0.006642
 4884 Fit       0.008442
 4885 Fit       0.009425
 4886 Fit       0.008504
 4887 Fit       0.007607
 4888 Fit       0.009381
 4889 Fit       0.010708
 4890 Fit       0.009791
 4891 Fit       0.008656
 4892 Fit       0.007625
 4893 Fit       0.006849
 4894 Fit       0.010941
 4895 Fit       0.012402
 4896 Fit       0.011275
 4897 Fit       0.010001
 4898 Fit       0.008819
 4899 Fit       0.007795
 4900 Fit       0.006920
 4901 Fit       0.006171
 4902 Fit       0.012939
 4903 Fit       0.014649
 4904 Fit       0.013012
 4905 Fit       0.011374
 4906 Fit       0.009944
 4907 Fit       0.008749
 4908 Fit       0.007753
 4909 Fit       0.006901
 4910 Fit       0.006127
 4911 Fit       0.015776
 4912 Fit       0.017610
 4913 Fit       0.015060
 4914 Fit       0.012813
 4915 Fit       0.010996
 4916 Fit       0.009559
 4917 Fit       0.008414
 4918 Fit       0.007482
 4919 Fit       0.006697
 4920 Fit       0.005990
 4921 Fit       0.017493
 4922 Fit       0.014423
 4923 Fit       0.012111
 4924 Fit       0.010372
 4925 Fit       0.009043
 4926 Fit       0.008003
 4927 Fit       0.007169
 4928 Fit       0.006488
 4929 Fit       0.005912
 4930 Fit       0.015705
 4931 Fit       0.012790
 4932 Fit       0.010722
 4933 Fit       0.009210
 4934 Fit       0.008069
 4935 Fit       0.007189
 4936 Fit       0.006507
 4937 Fit       0.005991
 4938 Fit       0.016732
 4939 Fit       0.013256
 4940 Fit       0.010896
 4941 Fit       0.009228
 4942 Fit       0.008005
 4943 Fit       0.007085
 4944 Fit       0.006392
 4945 Fit       0.005898
 4946 Fit       0.005611
 4947 Fit       0.016908
 4948 Fit       0.013079
 4949 Fit       0.010567
 4950 Fit       0.008835
 4951 Fit       0.007591
 4952 Fit       0.006674
 4953 Fit       0.006001
 4954 Fit       0.005543
 4955 Fit       0.005317
 4956 Fit       0.015570
 4957 Fit       0.011824
 4958 Fit       0.009421
 4959 Fit       0.007794
 4960 Fit       0.006646
 4961 Fit       0.005821
 4962 Fit       0.005245
 4963 Fit       0.004905
 4964 Fit       0.004846
 4965 Fit       0.012927
 4966 Fit       0.009768
 4967 Fit       0.007740
 4968 Fit       0.006370
 4969 Fit       0.005415
 4970 Fit       0.004752
 4971 Fit       0.004337
 4972 Fit       0.009577
 4973 Fit       0.007363
 4974 Fit       0.005879
 4975 Fit       0.004854
 4976 Fit       0.004142
 4977 Fit       0.003676
 4978 Fit      -0.001276
 4979 Fit       0.000131
 4980 Fit       0.000798
 4981 Fit       0.001154
 4982 Fit       0.001404
 4983 Fit       0.001646
 4984 Fit       0.001917
 4985 Fit       0.002213
 4986 Fit       0.002498
 4987 Fit       0.002703
 4988 Fit      -0.005912
 4989 Fit      -0.002822
 4990 Fit      -0.001048
 4991 Fit      -0.000014
 4992 Fit       0.000632
 4993 Fit       0.001089
 4994 Fit       0.001461
 4995 Fit       0.001791
 4996 Fit       0.002081
 4997 Fit       0.002307
 4998 Fit       0.002433
 4999 Fit      -0.010036
 5000 Fit      -0.005850
 5001 Fit      -0.003057
 5002 Fit      -0.001294
 5003 Fit      -0.000177
 5004 Fit       0.000570
 5005 Fit       0.001110
 5006 Fit       0.001529
 5007 Fit       0.001860
 5008 Fit       0.002108
 5009 Fit       0.002290
 5010 Fit      -0.008284
 5011 Fit      -0.005075
 5012 Fit      -0.002720
 5013 Fit      -0.001121
 5014 Fit      -0.000048
 5015 Fit       0.000692
 5016 Fit       0.001226
 5017 Fit       0.001620
 5018 Fit       0.001924
 5019 Fit      -0.015464
 5020 Fit      -0.014862
 5021 Fit      -0.011948
 5022 Fit      -0.006367
 5023 Fit      -0.003902
 5024 Fit      -0.001954
 5025 Fit      -0.000584
 5026 Fit       0.000346
 5027 Fit       0.000982
 5028 Fit       0.001428
 5029 Fit       0.001784
 5030 Fit      -0.008925
 5031 Fit      -0.009901
 5032 Fit      -0.008754
 5033 Fit      -0.004525
 5034 Fit      -0.002544
 5035 Fit      -0.000922
 5036 Fit       0.000159
 5037 Fit       0.000817
 5038 Fit       0.001181
 5039 Fit       0.001217
 5040 Fit      -0.001124
 5041 Fit      -0.003487
 5042 Fit      -0.005560
 5043 Fit      -0.005939
 5044 Fit      -0.002852
 5045 Fit      -0.001195
 5046 Fit      -0.000086
 5047 Fit      -0.000034
 5048 Fit      -0.001372
 5049 Fit      -0.003133
 5050 Fit      -0.001365
 5051 Fit       0.005550
 5052 Fit       0.005880
 5053 Fit       0.005405
 5054 Fit       0.005090
 5055 Fit       0.005237
 5056 Fit       0.005655
 5057 Fit       0.005981
 5058 Fit       0.006263
 5059 Fit       0.005795
 5060 Fit       0.005229
 5061 Fit       0.004781
 5062 Fit       0.004589
 5063 Fit       0.004660
 5064 Fit       0.004921
 5065 Fit       0.005292
 5066 Fit       0.005720
 5067 Fit       0.006136
 5068 Fit       0.006414
 5069 Fit       0.006474
 5070 Fit       0.006757
 5071 Fit       0.006288
 5072 Fit       0.005672
 5073 Fit       0.005037
 5074 Fit       0.004513
 5075 Fit       0.004177
 5076 Fit       0.004050
 5077 Fit       0.004110
 5078 Fit       0.004309
 5079 Fit       0.004597
 5080 Fit       0.004935
 5081 Fit       0.005312
 5082 Fit       0.005748
 5083 Fit       0.006233
 5084 Fit       0.006648
 5085 Fit       0.006907
 5086 Fit       0.007036
 5087 Fit       0.007006
 5088 Fit       0.007440
 5089 Fit       0.006923
 5090 Fit       0.006232
 5091 Fit       0.005467
 5092 Fit       0.004743
 5093 Fit       0.004152
 5094 Fit       0.003745
 5095 Fit       0.003532
 5096 Fit       0.003496
 5097 Fit       0.003608
 5098 Fit       0.003827
 5099 Fit       0.004114
 5100 Fit       0.004437
 5101 Fit       0.004774
 5102 Fit       0.005130
 5103 Fit       0.005564
 5104 Fit       0.007793
 5105 Fit       0.006984
 5106 Fit       0.006062
 5107 Fit       0.005142
 5108 Fit       0.004331
 5109 Fit       0.003696
 5110 Fit       0.003260
 5111 Fit       0.003014
 5112 Fit       0.002942
 5113 Fit       0.003017
 5114 Fit       0.003208
 5115 Fit       0.003478
 5116 Fit       0.003795
 5117 Fit       0.004137
 5118 Fit       0.004479
 5119 Fit       0.004804
 5120 Fit       0.005147
 5121 Fit       0.002491
 5122 Fit       0.002642
 5123 Fit       0.002884
 5124 Fit       0.003184
 5125 Fit       0.003518
 5126 Fit       0.003878
 5127 Fit       0.002941
 5128 Fit       0.003293
 5129 Fit       0.003272
 5130 Fit       0.002928
 5131 Fit       0.002601
 5132 Fit       0.004031
 5133 Fit       0.003667
 5134 Fit       0.003359
 5135 Fit       0.003061
 5136 Fit       0.002753
 5137 Fit       0.002449
 5138 Fit       0.004738
 5139 Fit       0.004297
 5140 Fit       0.003981
 5141 Fit       0.003714
 5142 Fit       0.003450
 5143 Fit       0.003168
 5144 Fit       0.002872
 5145 Fit       0.002586
 5146 Fit       0.005420
 5147 Fit       0.004860
 5148 Fit       0.004504
 5149 Fit       0.004248
 5150 Fit       0.004028
 5151 Fit       0.003804
 5152 Fit       0.003560
 5153 Fit       0.003296
 5154 Fit       0.003031
 5155 Fit       0.002790
 5156 Fit       0.005151
 5157 Fit       0.004785
 5158 Fit       0.004546
 5159 Fit       0.004356
 5160 Fit       0.004170
 5161 Fit       0.003964
 5162 Fit       0.003733
 5163 Fit       0.003488
 5164 Fit       0.003253
 5165 Fit       0.003066
 5166 Fit       0.005233
 5167 Fit       0.004904
 5168 Fit       0.004701
 5169 Fit       0.004550
 5170 Fit       0.004407
 5171 Fit       0.004246
 5172 Fit       0.004058
 5173 Fit       0.003845
 5174 Fit       0.003628
 5175 Fit       0.003442
 5176 Fit       0.003341
 5177 Fit       0.005013
 5178 Fit       0.004802
 5179 Fit       0.004672
 5180 Fit       0.004573
 5181 Fit       0.004472
 5182 Fit       0.004348
 5183 Fit       0.004191
 5184 Fit       0.004007
 5185 Fit       0.003811
 5186 Fit       0.003640
 5187 Fit       0.003551
 5188 Fit       0.004569
 5189 Fit       0.004524
 5190 Fit       0.004488
 5191 Fit       0.004443
 5192 Fit       0.004370
 5193 Fit       0.004258
 5194 Fit       0.004107
 5195 Fit       0.003927
 5196 Fit       0.003745
 5197 Fit       0.003616
 5198 Fit       0.004124
 5199 Fit       0.004205
 5200 Fit       0.004235
 5201 Fit       0.004218
 5202 Fit       0.004149
 5203 Fit       0.004026
 5204 Fit       0.003859
 5205 Fit       0.003671
 5206 Fit       0.003512
 5207 Fit       0.003743
 5208 Fit       0.003881
 5209 Fit       0.003936
 5210 Fit       0.003919
 5211 Fit       0.003832
 5212 Fit       0.003682
 5213 Fit       0.003485
 5214 Fit       0.003275
 5215 Fit       0.003254
 5216 Fit       0.003478
 5217 Fit       0.003577
 5218 Fit       0.003574
 5219 Fit       0.003475
 5220 Fit       0.003288
 5221 Fit       0.003025
 5222 Fit       0.002703
 5223 Fit       0.003086
 5224 Fit       0.003198
 5225 Fit       0.003187
 5226 Fit       0.003054
 5227 Fit       0.002792
 5228 Fit       0.002819
 5229 Fit       0.002856
 5230 Fit       0.002762
 5231 Fit       0.002493
 5232 Fit       0.002525
 5233 Fit       0.011286
 5234 Fit       0.013797
 5235 Fit       0.011122
 5236 Fit       0.013928
 5237 Fit       0.015682
 5238 Fit       0.016290
 5239 Fit       0.007711
 5240 Fit       0.010903
 5241 Fit       0.013704
 5242 Fit       0.015778
 5243 Fit       0.017117
 5244 Fit       0.017773
 5245 Fit       0.003819
 5246 Fit       0.007500
 5247 Fit       0.010565
 5248 Fit       0.013397
 5249 Fit       0.015598
 5250 Fit       0.017189
 5251 Fit       0.018227
 5252 Fit       0.018795
 5253 Fit       0.003193
 5254 Fit       0.007125
 5255 Fit       0.010052
 5256 Fit       0.012936
 5257 Fit       0.015220
 5258 Fit       0.016940
 5259 Fit       0.018151
 5260 Fit       0.018926
 5261 Fit       0.002446
 5262 Fit       0.006548
 5263 Fit       0.009316
 5264 Fit       0.012183
 5265 Fit       0.014489
 5266 Fit       0.016276
 5267 Fit       0.017591
 5268 Fit       0.018489
 5269 Fit       0.019044
 5270 Fit       0.001753
 5271 Fit       0.005848
 5272 Fit       0.008315
 5273 Fit       0.011271
 5274 Fit       0.013649
 5275 Fit       0.015498
 5276 Fit       0.016867
 5277 Fit       0.017804
 5278 Fit       0.018367
 5279 Fit       0.018652
 5280 Fit       0.000441
 5281 Fit       0.004724
 5282 Fit       0.007007
 5283 Fit       0.009993
 5284 Fit       0.012401
 5285 Fit       0.014285
 5286 Fit       0.015690
 5287 Fit       0.016657
 5288 Fit       0.017227
 5289 Fit       0.017453
 5290 Fit      -0.000969
 5291 Fit       0.003377
 5292 Fit       0.005353
 5293 Fit       0.008394
 5294 Fit       0.010843
 5295 Fit       0.012755
 5296 Fit       0.014176
 5297 Fit       0.015142
 5298 Fit       0.015686
 5299 Fit       0.015832
 5300 Fit      -0.002813
 5301 Fit       0.001646
 5302 Fit       0.003313
 5303 Fit       0.006516
 5304 Fit       0.009060
 5305 Fit       0.011011
 5306 Fit       0.012418
 5307 Fit       0.013318
 5308 Fit       0.013734
 5309 Fit       0.013673
 5310 Fit      -0.000633
 5311 Fit       0.000848
 5312 Fit       0.004256
 5313 Fit       0.006909
 5314 Fit       0.008883
 5315 Fit       0.010235
 5316 Fit       0.010999
 5317 Fit       0.011192
 5318 Fit       0.010797
 5319 Fit      -0.003416
 5320 Fit      -0.002084
 5321 Fit       0.001486
 5322 Fit       0.004209
 5323 Fit       0.006170
 5324 Fit       0.007427
 5325 Fit       0.008015
 5326 Fit       0.007944
 5327 Fit       0.007188
 5328 Fit      -0.001618
 5329 Fit       0.001223
 5330 Fit       0.003106
 5331 Fit       0.004099
 5332 Fit       0.004242
 5333 Fit       0.003546
 5334 Fit      -0.002421
 5335 Fit      -0.000766
 5336 Fit      -0.000241
 5337 Fit      -0.000786
 -----------------------------------------------------------------
 Leave Link  602 at Thu Nov  2 13:06:18 2023, MaxMem=   134217728 cpu:               0.5 elap:               0.5

 Test job not archived.
 1\1\GINC-LAC-419\FOpt\RHF\6-31G(d)\C7H14O1\RAHNAMOU\02-Nov-2023\0\\#HF
 /6-31G* SCF=tight Pop=MK iop(6/33=2) iop(6/42=6) opt\\mobley_1244778\\
 0,1\C,0.7994923839,-0.2333463705,0.6737376912\C,0.7621583434,-1.741311
 0773,0.9737349282\C,1.4899835118,-2.2134084967,2.2429160661\C,2.821623
 9289,-1.5213076884,2.563235727\C,2.6615204812,-0.2241305102,3.35153030
 9\C,2.0628685493,0.9476257916,2.5736154654\C,0.7127374997,0.7007660711
 ,1.8893093084\O,3.9503174722,0.1184375722,3.8113860004\H,-0.0177371205
 ,-0.0104273515,-0.0067608761\H,1.7086517813,0.0064146708,0.1279190165\
 H,-0.2738550715,-2.0632912665,1.0464356782\H,1.1746999567,-2.262144912
 ,0.1132411337\H,0.8303544492,-2.1038101875,3.1007871451\H,1.6620588102
 ,-3.2814340823,2.1467589439\H,3.4266681904,-2.1784765902,3.1788403498\
 H,3.3965878896,-1.3323510982,1.6599283205\H,2.0209626749,-0.4362104067
 ,4.208674292\H,1.9574370455,1.7838239366,3.2647097998\H,2.7896693041,1
 .2578521022,1.8266295623\H,-0.0166676136,0.3281057663,2.6064038608\H,0
 .3368974581,1.6638314871,1.5556485451\H,3.9025700753,0.91279264,4.3253
 187329\\Version=ES64L-G16RevC.01\State=1-A\HF=-348.082375\RMSD=7.560e-
 09\RMSF=2.235e-05\Dipole=-0.5763499,0.3316419,0.061263\Quadrupole=-3.5
 830341,2.1777942,1.4052399,0.8475544,-0.9735037,2.0074508\PG=C01 [X(C7
 H14O1)]\\@


 "PERFECTION IS NOT AN ACCIDENT"
         --  EAGLE ELECTRIC MANUFACTURING CO.,INC. NY
 Job cpu time:       0 days  0 hours  1 minutes  0.3 seconds.
 Elapsed time:       0 days  0 hours  0 minutes 59.7 seconds.
 File lengths (MBytes):  RWF=    272 Int=      0 D2E=      0 Chk=     32 Scr=     32
 Normal termination of Gaussian 16 at Thu Nov  2 13:06:19 2023.
