 Entering Gaussian System, Link 0=/opt/software/Gaussian/g16-AVX2-C.01/g16/g16
 Input=mobley_1160109.com
 Output=mobley_1160109.log
 Initial command:
 /opt/software/Gaussian/g16-AVX2-C.01/g16/l1.exe "/mnt/gs21/scratch/rahnamou/Gau-741.inp" -scrdir="/mnt/gs21/scratch/rahnamou/"
 Entering Link 1 = /opt/software/Gaussian/g16-AVX2-C.01/g16/l1.exe PID=       750.
  
 Copyright (c) 1988-2019, Gaussian, Inc.  All Rights Reserved.
  
 This is part of the Gaussian(R) 16 program.  It is based on
 the Gaussian(R) 09 system (copyright 2009, Gaussian, Inc.),
 the Gaussian(R) 03 system (copyright 2003, Gaussian, Inc.),
 the Gaussian(R) 98 system (copyright 1998, Gaussian, Inc.),
 the Gaussian(R) 94 system (copyright 1995, Gaussian, Inc.),
 the Gaussian 92(TM) system (copyright 1992, Gaussian, Inc.),
 the Gaussian 90(TM) system (copyright 1990, Gaussian, Inc.),
 the Gaussian 88(TM) system (copyright 1988, Gaussian, Inc.),
 the Gaussian 86(TM) system (copyright 1986, Carnegie Mellon
 University), and the Gaussian 82(TM) system (copyright 1983,
 Carnegie Mellon University). Gaussian is a federally registered
 trademark of Gaussian, Inc.
  
 This software contains proprietary and confidential information,
 including trade secrets, belonging to Gaussian, Inc.
  
 This software is provided under written license and may be
 used, copied, transmitted, or stored only in accord with that
 written license.
  
 The following legend is applicable only to US Government
 contracts under FAR:
  
                    RESTRICTED RIGHTS LEGEND
  
 Use, reproduction and disclosure by the US Government is
 subject to restrictions as set forth in subparagraphs (a)
 and (c) of the Commercial Computer Software - Restricted
 Rights clause in FAR 52.227-19.
  
 Gaussian, Inc.
 340 Quinnipiac St., Bldg. 40, Wallingford CT 06492
  
  
 ---------------------------------------------------------------
 Warning -- This program may not be used in any manner that
 competes with the business of Gaussian, Inc. or will provide
 assistance to any competitor of Gaussian, Inc.  The licensee
 of this program is prohibited from giving any competitor of
 Gaussian, Inc. access to this program.  By using this program,
 the user acknowledges that Gaussian, Inc. is engaged in the
 business of creating and licensing software in the field of
 computational chemistry and represents and warrants to the
 licensee that it is not a competitor of Gaussian, Inc. and that
 it will not use this program in any manner prohibited above.
 ---------------------------------------------------------------
  

 Cite this work as:
 Gaussian 16, Revision C.01,
 M. J. Frisch, G. W. Trucks, H. B. Schlegel, G. E. Scuseria, 
 M. A. Robb, J. R. Cheeseman, G. Scalmani, V. Barone, 
 G. A. Petersson, H. Nakatsuji, X. Li, M. Caricato, A. V. Marenich, 
 J. Bloino, B. G. Janesko, R. Gomperts, B. Mennucci, H. P. Hratchian, 
 J. V. Ortiz, A. F. Izmaylov, J. L. Sonnenberg, D. Williams-Young, 
 F. Ding, F. Lipparini, F. Egidi, J. Goings, B. Peng, A. Petrone, 
 T. Henderson, D. Ranasinghe, V. G. Zakrzewski, J. Gao, N. Rega, 
 G. Zheng, W. Liang, M. Hada, M. Ehara, K. Toyota, R. Fukuda, 
 J. Hasegawa, M. Ishida, T. Nakajima, Y. Honda, O. Kitao, H. Nakai, 
 T. Vreven, K. Throssell, J. A. Montgomery, Jr., J. E. Peralta, 
 F. Ogliaro, M. J. Bearpark, J. J. Heyd, E. N. Brothers, K. N. Kudin, 
 V. N. Staroverov, T. A. Keith, R. Kobayashi, J. Normand, 
 K. Raghavachari, A. P. Rendell, J. C. Burant, S. S. Iyengar, 
 J. Tomasi, M. Cossi, J. M. Millam, M. Klene, C. Adamo, R. Cammi, 
 J. W. Ochterski, R. L. Martin, K. Morokuma, O. Farkas, 
 J. B. Foresman, and D. J. Fox, Gaussian, Inc., Wallingford CT, 2019.
 
 ******************************************
 Gaussian 16:  ES64L-G16RevC.01  3-Jul-2019
                 2-Nov-2023 
 ******************************************
 %chk=mobley_1160109.chk
 %mem=1GB
 %NProcShared=1
 Will use up to    1 processors via shared memory.
 -------------------------------------------------------
 #HF/6-31G* SCF=tight Pop=MK iop(6/33=2) iop(6/42=6) opt
 -------------------------------------------------------
 1/18=20,19=15,38=1/1,3;
 2/9=110,12=2,17=6,18=5,40=1/2;
 3/5=1,6=6,7=1,11=9,25=1,30=1,71=1/1,2,3;
 4//1;
 5/5=2,32=2,38=5/2;
 6/7=2,8=2,9=2,10=2,15=8,20=1,28=1,33=2,42=6/1,2;
 7//1,2,3,16;
 1/18=20,19=15/3(2);
 2/9=110/2;
 99//99;
 2/9=110/2;
 3/5=1,6=6,7=1,11=9,25=1,30=1,71=1/1,2,3;
 4/5=5,16=3,69=1/1;
 5/5=2,32=2,38=5/2;
 7//1,2,3,16;
 1/18=20,19=15/3(-5);
 2/9=110/2;
 6/7=2,8=2,9=2,10=2,15=8,19=2,20=1,28=1,33=2,42=6/1,2;
 99/9=1/99;
 --------------
 mobley_1160109
 --------------
 Symbolic Z-matrix:
 Charge =  0 Multiplicity = 1
 C                     0.964     0.683    -2.525 
 C                     0.613    -0.097    -1.262 
 H                     1.244    -0.994    -1.221 
 C                    -0.862    -0.507    -1.27 
 C                    -1.262    -1.225     0.02 
 C                    -0.986    -0.346     1.246 
 H                    -1.603     0.559     1.164 
 C                     0.485     0.07      1.306 
 C                     0.908     0.708    -0.001 
 O                     1.53      1.769    -0.016 
 C                    -1.39     -1.055     2.502 
 C                    -0.845    -2.226     2.863 
 C                    -2.441    -0.38      3.334 
 H                     0.353     1.587    -2.601 
 H                     2.018     0.978    -2.514 
 H                     0.787     0.072    -3.415 
 H                    -1.498     0.379    -1.396 
 H                    -1.061    -1.165    -2.125 
 H                    -2.327    -1.48     -0.031 
 H                    -0.711    -2.171     0.096 
 H                     0.645     0.792     2.116 
 H                     1.142    -0.789     1.489 
 H                    -1.146    -2.731     3.775 
 H                    -0.085    -2.707     2.255 
 H                    -3.439    -0.71      3.026 
 H                    -2.304    -0.628     4.391 
 H                    -2.406     0.71      3.239 
 

 GradGradGradGradGradGradGradGradGradGradGradGradGradGradGradGradGradGrad
 Berny optimization.
 Initialization pass.
                           ----------------------------
                           !    Initial Parameters    !
                           ! (Angstroms and Degrees)  !
 --------------------------                            --------------------------
 ! Name  Definition              Value          Derivative Info.                !
 --------------------------------------------------------------------------------
 ! R1    R(1,2)                  1.5254         estimate D2E/DX2                !
 ! R2    R(1,14)                 1.0938         estimate D2E/DX2                !
 ! R3    R(1,15)                 1.0946         estimate D2E/DX2                !
 ! R4    R(1,16)                 1.094          estimate D2E/DX2                !
 ! R5    R(2,3)                  1.0975         estimate D2E/DX2                !
 ! R6    R(2,4)                  1.5309         estimate D2E/DX2                !
 ! R7    R(2,9)                  1.5249         estimate D2E/DX2                !
 ! R8    R(4,5)                  1.5296         estimate D2E/DX2                !
 ! R9    R(4,17)                 1.0979         estimate D2E/DX2                !
 ! R10   R(4,18)                 1.0971         estimate D2E/DX2                !
 ! R11   R(5,6)                  1.5336         estimate D2E/DX2                !
 ! R12   R(5,19)                 1.0963         estimate D2E/DX2                !
 ! R13   R(5,20)                 1.0974         estimate D2E/DX2                !
 ! R14   R(6,7)                  1.0984         estimate D2E/DX2                !
 ! R15   R(6,8)                  1.5299         estimate D2E/DX2                !
 ! R16   R(6,11)                 1.4978         estimate D2E/DX2                !
 ! R17   R(8,9)                  1.5147         estimate D2E/DX2                !
 ! R18   R(8,21)                 1.0968         estimate D2E/DX2                !
 ! R19   R(8,22)                 1.0968         estimate D2E/DX2                !
 ! R20   R(9,10)                 1.23           estimate D2E/DX2                !
 ! R21   R(11,12)                1.3411         estimate D2E/DX2                !
 ! R22   R(11,13)                1.5008         estimate D2E/DX2                !
 ! R23   R(12,23)                1.0851         estimate D2E/DX2                !
 ! R24   R(12,24)                1.0856         estimate D2E/DX2                !
 ! R25   R(13,25)                1.0953         estimate D2E/DX2                !
 ! R26   R(13,26)                1.0943         estimate D2E/DX2                !
 ! R27   R(13,27)                1.0947         estimate D2E/DX2                !
 ! A1    A(2,1,14)             110.5866         estimate D2E/DX2                !
 ! A2    A(2,1,15)             110.5531         estimate D2E/DX2                !
 ! A3    A(2,1,16)             110.5356         estimate D2E/DX2                !
 ! A4    A(14,1,15)            108.4131         estimate D2E/DX2                !
 ! A5    A(14,1,16)            108.3431         estimate D2E/DX2                !
 ! A6    A(15,1,16)            108.3311         estimate D2E/DX2                !
 ! A7    A(1,2,3)              108.4558         estimate D2E/DX2                !
 ! A8    A(1,2,4)              110.7515         estimate D2E/DX2                !
 ! A9    A(1,2,9)              111.7312         estimate D2E/DX2                !
 ! A10   A(3,2,4)              109.5879         estimate D2E/DX2                !
 ! A11   A(3,2,9)              106.8196         estimate D2E/DX2                !
 ! A12   A(4,2,9)              109.396          estimate D2E/DX2                !
 ! A13   A(2,4,5)              111.9167         estimate D2E/DX2                !
 ! A14   A(2,4,17)             110.0354         estimate D2E/DX2                !
 ! A15   A(2,4,18)             109.8439         estimate D2E/DX2                !
 ! A16   A(5,4,17)             108.9118         estimate D2E/DX2                !
 ! A17   A(5,4,18)             109.1654         estimate D2E/DX2                !
 ! A18   A(17,4,18)            106.8279         estimate D2E/DX2                !
 ! A19   A(4,5,6)              110.9837         estimate D2E/DX2                !
 ! A20   A(4,5,19)             108.9048         estimate D2E/DX2                !
 ! A21   A(4,5,20)             109.3751         estimate D2E/DX2                !
 ! A22   A(6,5,19)             110.2028         estimate D2E/DX2                !
 ! A23   A(6,5,20)             110.3872         estimate D2E/DX2                !
 ! A24   A(19,5,20)            106.8863         estimate D2E/DX2                !
 ! A25   A(5,6,7)              108.1483         estimate D2E/DX2                !
 ! A26   A(5,6,8)              111.1157         estimate D2E/DX2                !
 ! A27   A(5,6,11)             110.5188         estimate D2E/DX2                !
 ! A28   A(7,6,8)              108.6027         estimate D2E/DX2                !
 ! A29   A(7,6,11)             107.5241         estimate D2E/DX2                !
 ! A30   A(8,6,11)             110.8042         estimate D2E/DX2                !
 ! A31   A(6,8,9)              110.4394         estimate D2E/DX2                !
 ! A32   A(6,8,21)             110.3788         estimate D2E/DX2                !
 ! A33   A(6,8,22)             111.6872         estimate D2E/DX2                !
 ! A34   A(9,8,21)             108.617          estimate D2E/DX2                !
 ! A35   A(9,8,22)             107.8527         estimate D2E/DX2                !
 ! A36   A(21,8,22)            107.7548         estimate D2E/DX2                !
 ! A37   A(2,9,8)              115.9247         estimate D2E/DX2                !
 ! A38   A(2,9,10)             122.8979         estimate D2E/DX2                !
 ! A39   A(8,9,10)             121.0041         estimate D2E/DX2                !
 ! A40   A(6,11,12)            121.9667         estimate D2E/DX2                !
 ! A41   A(6,11,13)            116.1586         estimate D2E/DX2                !
 ! A42   A(12,11,13)           121.8747         estimate D2E/DX2                !
 ! A43   A(11,12,23)           121.3248         estimate D2E/DX2                !
 ! A44   A(11,12,24)           121.3717         estimate D2E/DX2                !
 ! A45   A(23,12,24)           117.3035         estimate D2E/DX2                !
 ! A46   A(11,13,25)           110.2838         estimate D2E/DX2                !
 ! A47   A(11,13,26)           110.2346         estimate D2E/DX2                !
 ! A48   A(11,13,27)           112.1683         estimate D2E/DX2                !
 ! A49   A(25,13,26)           108.5054         estimate D2E/DX2                !
 ! A50   A(25,13,27)           107.741          estimate D2E/DX2                !
 ! A51   A(26,13,27)           107.7868         estimate D2E/DX2                !
 ! D1    D(14,1,2,3)           179.9807         estimate D2E/DX2                !
 ! D2    D(14,1,2,4)            59.689          estimate D2E/DX2                !
 ! D3    D(14,1,2,9)           -62.5413         estimate D2E/DX2                !
 ! D4    D(15,1,2,3)           -59.9412         estimate D2E/DX2                !
 ! D5    D(15,1,2,4)           179.7672         estimate D2E/DX2                !
 ! D6    D(15,1,2,9)            57.5368         estimate D2E/DX2                !
 ! D7    D(16,1,2,3)            60.0014         estimate D2E/DX2                !
 ! D8    D(16,1,2,4)           -60.2903         estimate D2E/DX2                !
 ! D9    D(16,1,2,9)           177.4794         estimate D2E/DX2                !
 ! D10   D(1,2,4,5)           -176.8824         estimate D2E/DX2                !
 ! D11   D(1,2,4,17)           -55.6449         estimate D2E/DX2                !
 ! D12   D(1,2,4,18)            61.6909         estimate D2E/DX2                !
 ! D13   D(3,2,4,5)             63.5033         estimate D2E/DX2                !
 ! D14   D(3,2,4,17)          -175.2592         estimate D2E/DX2                !
 ! D15   D(3,2,4,18)           -57.9234         estimate D2E/DX2                !
 ! D16   D(9,2,4,5)            -53.2981         estimate D2E/DX2                !
 ! D17   D(9,2,4,17)            67.9394         estimate D2E/DX2                !
 ! D18   D(9,2,4,18)          -174.7248         estimate D2E/DX2                !
 ! D19   D(1,2,9,8)            174.9816         estimate D2E/DX2                !
 ! D20   D(1,2,9,10)            -9.7653         estimate D2E/DX2                !
 ! D21   D(3,2,9,8)            -66.5606         estimate D2E/DX2                !
 ! D22   D(3,2,9,10)           108.6924         estimate D2E/DX2                !
 ! D23   D(4,2,9,8)             51.9772         estimate D2E/DX2                !
 ! D24   D(4,2,9,10)          -132.7698         estimate D2E/DX2                !
 ! D25   D(2,4,5,6)             57.553          estimate D2E/DX2                !
 ! D26   D(2,4,5,19)           179.0405         estimate D2E/DX2                !
 ! D27   D(2,4,5,20)           -64.4783         estimate D2E/DX2                !
 ! D28   D(17,4,5,6)           -64.3313         estimate D2E/DX2                !
 ! D29   D(17,4,5,19)           57.1562         estimate D2E/DX2                !
 ! D30   D(17,4,5,20)          173.6374         estimate D2E/DX2                !
 ! D31   D(18,4,5,6)           179.3701         estimate D2E/DX2                !
 ! D32   D(18,4,5,19)          -59.1424         estimate D2E/DX2                !
 ! D33   D(18,4,5,20)           57.3388         estimate D2E/DX2                !
 ! D34   D(4,5,6,7)             62.1581         estimate D2E/DX2                !
 ! D35   D(4,5,6,8)            -56.9495         estimate D2E/DX2                !
 ! D36   D(4,5,6,11)           179.6104         estimate D2E/DX2                !
 ! D37   D(19,5,6,7)           -58.5653         estimate D2E/DX2                !
 ! D38   D(19,5,6,8)          -177.6729         estimate D2E/DX2                !
 ! D39   D(19,5,6,11)           58.887          estimate D2E/DX2                !
 ! D40   D(20,5,6,7)          -176.4024         estimate D2E/DX2                !
 ! D41   D(20,5,6,8)            64.49           estimate D2E/DX2                !
 ! D42   D(20,5,6,11)          -58.9501         estimate D2E/DX2                !
 ! D43   D(5,6,8,9)             53.1733         estimate D2E/DX2                !
 ! D44   D(5,6,8,21)           173.2977         estimate D2E/DX2                !
 ! D45   D(5,6,8,22)           -66.8466         estimate D2E/DX2                !
 ! D46   D(7,6,8,9)            -65.6616         estimate D2E/DX2                !
 ! D47   D(7,6,8,21)            54.4628         estimate D2E/DX2                !
 ! D48   D(7,6,8,22)           174.3184         estimate D2E/DX2                !
 ! D49   D(11,6,8,9)           176.4499         estimate D2E/DX2                !
 ! D50   D(11,6,8,21)          -63.4257         estimate D2E/DX2                !
 ! D51   D(11,6,8,22)           56.43           estimate D2E/DX2                !
 ! D52   D(5,6,11,12)           59.9633         estimate D2E/DX2                !
 ! D53   D(5,6,11,13)         -120.0069         estimate D2E/DX2                !
 ! D54   D(7,6,11,12)          177.7991         estimate D2E/DX2                !
 ! D55   D(7,6,11,13)           -2.1711         estimate D2E/DX2                !
 ! D56   D(8,6,11,12)          -63.6568         estimate D2E/DX2                !
 ! D57   D(8,6,11,13)          116.373          estimate D2E/DX2                !
 ! D58   D(6,8,9,2)            -52.359          estimate D2E/DX2                !
 ! D59   D(6,8,9,10)           132.2909         estimate D2E/DX2                !
 ! D60   D(21,8,9,2)          -173.5361         estimate D2E/DX2                !
 ! D61   D(21,8,9,10)           11.1137         estimate D2E/DX2                !
 ! D62   D(22,8,9,2)            69.9408         estimate D2E/DX2                !
 ! D63   D(22,8,9,10)         -105.4093         estimate D2E/DX2                !
 ! D64   D(6,11,12,23)        -179.9585         estimate D2E/DX2                !
 ! D65   D(6,11,12,24)           0.0469         estimate D2E/DX2                !
 ! D66   D(13,11,12,23)          0.01           estimate D2E/DX2                !
 ! D67   D(13,11,12,24)       -179.9845         estimate D2E/DX2                !
 ! D68   D(6,11,13,25)          89.9824         estimate D2E/DX2                !
 ! D69   D(6,11,13,26)        -150.2244         estimate D2E/DX2                !
 ! D70   D(6,11,13,27)         -30.1088         estimate D2E/DX2                !
 ! D71   D(12,11,13,25)        -89.9879         estimate D2E/DX2                !
 ! D72   D(12,11,13,26)         29.8053         estimate D2E/DX2                !
 ! D73   D(12,11,13,27)        149.9209         estimate D2E/DX2                !
 --------------------------------------------------------------------------------
 Trust Radius=3.00D-01 FncErr=1.00D-07 GrdErr=1.00D-07 EigMax=2.50D+02 EigMin=1.00D-04
 Number of steps in this run=    161 maximum allowed number of steps=    162.
 GradGradGradGradGradGradGradGradGradGradGradGradGradGradGradGradGradGrad

                          Input orientation:                          
 ---------------------------------------------------------------------
 Center     Atomic      Atomic             Coordinates (Angstroms)
 Number     Number       Type             X           Y           Z
 ---------------------------------------------------------------------
      1          6           0        0.964000    0.683000   -2.525000
      2          6           0        0.613000   -0.097000   -1.262000
      3          1           0        1.244000   -0.994000   -1.221000
      4          6           0       -0.862000   -0.507000   -1.270000
      5          6           0       -1.262000   -1.225000    0.020000
      6          6           0       -0.986000   -0.346000    1.246000
      7          1           0       -1.603000    0.559000    1.164000
      8          6           0        0.485000    0.070000    1.306000
      9          6           0        0.908000    0.708000   -0.001000
     10          8           0        1.530000    1.769000   -0.016000
     11          6           0       -1.390000   -1.055000    2.502000
     12          6           0       -0.845000   -2.226000    2.863000
     13          6           0       -2.441000   -0.380000    3.334000
     14          1           0        0.353000    1.587000   -2.601000
     15          1           0        2.018000    0.978000   -2.514000
     16          1           0        0.787000    0.072000   -3.415000
     17          1           0       -1.498000    0.379000   -1.396000
     18          1           0       -1.061000   -1.165000   -2.125000
     19          1           0       -2.327000   -1.480000   -0.031000
     20          1           0       -0.711000   -2.171000    0.096000
     21          1           0        0.645000    0.792000    2.116000
     22          1           0        1.142000   -0.789000    1.489000
     23          1           0       -1.146000   -2.731000    3.775000
     24          1           0       -0.085000   -2.707000    2.255000
     25          1           0       -3.439000   -0.710000    3.026000
     26          1           0       -2.304000   -0.628000    4.391000
     27          1           0       -2.406000    0.710000    3.239000
 ---------------------------------------------------------------------
                    Distance matrix (angstroms):
                    1          2          3          4          5
     1  C    0.000000
     2  C    1.525375   0.000000
     3  H    2.142696   1.097475   0.000000
     4  C    2.515035   1.530944   2.162130   0.000000
     5  C    3.882340   2.536047   2.805972   1.529583   0.000000
     6  C    4.368270   2.984772   3.388052   2.524194   1.533588
     7  H    4.495952   3.350592   4.025598   2.758585   2.146549
     8  C    3.909191   2.576606   2.844979   2.963632   2.526426
     9  C    2.524745   1.524851   2.120872   2.493890   2.906171
    10  O    2.791923   2.423914   3.027869   3.531905   4.093971
    11  C    5.816587   4.370065   4.560965   3.847996   2.491106
    12  C    6.384771   4.865597   4.749821   4.476264   3.042785
    13  C    6.859437   5.525416   5.891031   4.868900   3.617549
    14  H    1.093761   2.167113   3.059386   2.762720   4.169558
    15  H    1.094560   2.167292   2.481876   3.470902   4.693907
    16  H    1.093961   2.166621   2.481701   2.766851   4.204740
    17  H    2.725528   2.168145   3.071533   1.097893   2.152572
    18  H    2.770511   2.165103   2.481830   1.097082   2.155232
    19  H    4.661468   3.474428   3.795305   2.151296   1.096290
    20  H    4.221443   2.810448   2.634738   2.158160   1.097403
    21  H    4.653227   3.493169   3.831992   3.927270   3.478240
    22  H    4.279096   2.885603   2.719656   3.421640   2.850837
    23  H    7.469772   5.950076   5.804247   5.520766   4.047409
    24  H    5.953226   4.434929   4.096729   4.227216   2.928631
    25  H    7.220835   5.931393   6.328361   5.013756   3.747078
    26  H    7.760773   6.383358   6.649572   5.843024   4.532970
    27  H    6.676925   5.479472   6.009802   4.918954   3.926184
                    6          7          8          9         10
     6  C    0.000000
     7  H    1.098380   0.000000
     8  C    1.529868   2.149193   0.000000
     9  C    2.500632   2.772102   1.514669   0.000000
    10  O    3.520813   3.559802   2.392971   1.229972   0.000000
    11  C    1.497809   2.107275   2.492321   3.828052   4.779299
    12  C    2.483741   3.349237   3.076486   4.459132   5.467110
    13  C    2.545177   2.508558   3.588420   4.849925   5.622236
    14  H    4.508749   4.365541   4.193252   2.800119   2.846169
    15  H    4.991452   5.178309   4.215086   2.760465   2.665301
    16  H    5.004316   5.188112   4.730650   3.474843   3.871054
    17  H    2.787101   2.568467   3.365795   2.800554   3.606284
    18  H    3.469874   3.752794   3.960695   3.449125   4.446293
    19  H    2.171397   2.471785   3.478134   3.905569   5.043082
    20  H    2.174569   3.064178   2.813645   3.304423   4.534118
    21  H    2.170738   2.452366   1.096806   2.134927   2.506627
    22  H    2.187163   3.075346   1.096822   2.125056   2.993148
    23  H    3.479895   4.224958   4.074521   5.504890   6.463951
    24  H    2.721067   3.763158   2.989520   4.211628   5.272593
    25  H    3.052557   2.906596   4.354834   5.483599   6.331680
    26  H    3.421648   3.509117   4.216984   5.602812   6.314017
    27  H    2.665255   2.230075   3.536095   4.634674   5.216187
                   11         12         13         14         15
    11  C    0.000000
    12  C    1.341114   0.000000
    13  C    1.500816   2.485311   0.000000
    14  H    6.004900   6.769747   6.848339   0.000000
    15  H    6.395921   6.882915   7.478365   1.775014   0.000000
    16  H    6.404713   6.881679   7.494884   1.773747   1.774260
    17  H    4.154807   5.035029   4.882441   2.517437   3.737778
    18  H    4.639986   5.104167   5.685183   3.130411   3.771473
    19  H    2.733987   3.335877   3.542065   4.815993   5.575489
    20  H    2.737761   2.770789   4.084755   4.746416   4.916883
    21  H    2.775181   3.447671   3.518594   4.792429   4.832869
    22  H    2.740064   2.810874   4.050826   4.795414   4.462474
    23  H    2.118736   1.085067   2.720056   7.845094   7.957330
    24  H    2.119702   1.085645   3.482801   6.497001   6.383196
    25  H    2.142896   3.008930   1.095339   7.163700   7.957373
    26  H    2.141506   2.648975   1.094313   7.800893   8.302888
    27  H    2.165791   3.346370   1.094692   6.518191   7.262273
                   16         17         18         19         20
    16  H    0.000000
    17  H    3.064610   0.000000
    18  H    2.570870   1.762483   0.000000
    19  H    4.853571   2.450785   2.467148   0.000000
    20  H    4.427434   3.057439   2.463205   1.762120   0.000000
    21  H    5.579474   4.134871   4.972561   4.313279   3.833863
    22  H    4.991649   4.081305   4.249186   3.849915   2.698885
    23  H    7.955463   6.044439   6.104882   4.176769   3.746714
    24  H    6.374333   4.984954   4.744970   3.428978   2.310942
    25  H    7.743196   4.950504   5.691635   3.342857   4.261620
    26  H    8.424839   5.929001   6.655199   4.503390   4.833790
    27  H    7.407969   4.734686   5.839276   3.936399   4.588206
                   21         22         23         24         25
    21  H    0.000000
    22  H    1.771920   0.000000
    23  H    4.286198   3.772546   0.000000
    24  H    3.577041   2.402292   1.853833   0.000000
    25  H    4.445578   4.832615   3.146949   3.978915   0.000000
    26  H    3.986054   4.508042   2.478513   3.716006   1.777125
    27  H    3.252146   4.230580   3.703428   4.246314   1.768858
                   26         27
    26  H    0.000000
    27  H    1.768545   0.000000
 Stoichiometry    C10H16O
 Framework group  C1[X(C10H16O)]
 Deg. of freedom    75
 Full point group                 C1      NOp   1
 Largest Abelian subgroup         C1      NOp   1
 Largest concise Abelian subgroup C1      NOp   1
                         Standard orientation:                         
 ---------------------------------------------------------------------
 Center     Atomic      Atomic             Coordinates (Angstroms)
 Number     Number       Type             X           Y           Z
 ---------------------------------------------------------------------
      1          6           0        3.419869   -0.448938   -0.104117
      2          6           0        1.962556   -0.416482    0.345277
      3          1           0        1.927300   -0.613057    1.424428
      4          6           0        1.142499   -1.475377   -0.396368
      5          6           0       -0.339336   -1.415472   -0.021936
      6          6           0       -0.923066   -0.027045   -0.310764
      7          1           0       -0.845021    0.159054   -1.390447
      8          6           0       -0.145488    1.062678    0.429758
      9          6           0        1.334539    0.955624    0.125977
     10          8           0        1.989638    1.947260   -0.190774
     11          6           0       -2.375944    0.017207    0.050651
     12          6           0       -2.804363   -0.217326    1.299667
     13          6           0       -3.326001    0.338599   -1.065838
     14          1           0        3.495478   -0.256844   -1.178219
     15          1           0        4.002205    0.311960    0.425016
     16          1           0        3.863538   -1.427264    0.102728
     17          1           0        1.241391   -1.336180   -1.480902
     18          1           0        1.531626   -2.475319   -0.167710
     19          1           0       -0.880808   -2.179795   -0.591558
     20          1           0       -0.456960   -1.666293    1.039924
     21          1           0       -0.494816    2.056245    0.123528
     22          1           0       -0.272288    0.983779    1.516366
     23          1           0       -3.859649   -0.183195    1.549818
     24          1           0       -2.109790   -0.448866    2.101280
     25          1           0       -3.650436   -0.580892   -1.564882
     26          1           0       -4.209785    0.851954   -0.674795
     27          1           0       -2.870670    0.985823   -1.822228
 ---------------------------------------------------------------------
 Rotational constants (GHZ):           2.1669688           0.6542698           0.5788133
 Standard basis: 6-31G(d) (6D, 7F)
 There are   197 symmetry adapted cartesian basis functions of A   symmetry.
 There are   197 symmetry adapted basis functions of A   symmetry.
   197 basis functions,   372 primitive gaussians,   197 cartesian basis functions
    42 alpha electrons       42 beta electrons
       nuclear repulsion energy       631.9887005736 Hartrees.
 NAtoms=   27 NActive=   27 NUniq=   27 SFac= 1.00D+00 NAtFMM=   60 NAOKFM=F Big=F
 Integral buffers will be    131072 words long.
 Raffenetti 1 integral format.
 Two-electron integral symmetry is turned on.
 One-electron integrals computed using PRISM.
 NBasis=   197 RedAO= T EigKep=  2.09D-03  NBF=   197
 NBsUse=   197 1.00D-06 EigRej= -1.00D+00 NBFU=   197
 ExpMin= 1.61D-01 ExpMax= 5.48D+03 ExpMxC= 8.25D+02 IAcc=3 IRadAn=         5 AccDes= 0.00D+00
 Harris functional with IExCor=  205 and IRadAn=       5 diagonalized for initial guess.
 HarFok:  IExCor=  205 AccDes= 0.00D+00 IRadAn=         5 IDoV= 1 UseB2=F ITyADJ=14
 ICtDFT=  3500011 ScaDFX=  1.000000  1.000000  1.000000  1.000000
 FoFCou: FMM=F IPFlag=           0 FMFlag=      100000 FMFlg1=           0
         NFxFlg=           0 DoJE=T BraDBF=F KetDBF=T FulRan=T
         wScrn=  0.000000 ICntrl=       500 IOpCl=  0 I1Cent=   200000004 NGrid=           0
         NMat0=    1 NMatS0=      1 NMatT0=    0 NMatD0=    1 NMtDS0=    0 NMtDT0=    0
 Petite list used in FoFCou.
 Requested convergence on RMS density matrix=1.00D-08 within 128 cycles.
 Requested convergence on MAX density matrix=1.00D-06.
 Requested convergence on             energy=1.00D-06.
 No special actions if energy rises.
 Integral accuracy reduced to 1.0D-05 until final iterations.
 Initial convergence to 1.0D-05 achieved.  Increase integral accuracy.
 SCF Done:  E(RHF) =  -462.844246134     A.U. after   14 cycles
            NFock= 14  Conv=0.67D-08     -V/T= 2.0014
 SCF density gives NOpUse=  1 NOpAll=  1.

 **********************************************************************

            Population analysis using the SCF Density.

 **********************************************************************

 Orbital symmetries:
 BldTbl:  Degeneracy threshold= 1.00D-02
       Occupied  (A) (A) (A) (A) (A) (A) (A) (A) (A) (A) (A) (A)
                 (A) (A) (A) (A) (A) (A) (A) (A) (A) (A) (A) (A)
                 (A) (A) (A) (A) (A) (A) (A) (A) (A) (A) (A) (A)
                 (A) (A) (A) (A) (A) (A)
       Virtual   (A) (A) (A) (A) (A) (A) (A) (A) (A) (A) (A) (A)
                 (A) (A) (A) (A) (A) (A) (A) (A) (A) (A) (A) (A)
                 (A) (A) (A) (A) (A) (A) (A) (A) (A) (A) (A) (A)
                 (A) (A) (A) (A) (A) (A) (A) (A) (A) (A) (A) (A)
                 (A) (A) (A) (A) (A) (A) (A) (A) (A) (A) (A) (A)
                 (A) (A) (A) (A) (A) (A) (A) (A) (A) (A) (A) (A)
                 (A) (A) (A) (A) (A) (A) (A) (A) (A) (A) (A) (A)
                 (A) (A) (A) (A) (A) (A) (A) (A) (A) (A) (A) (A)
                 (A) (A) (A) (A) (A) (A) (A) (A) (A) (A) (A) (A)
                 (A) (A) (A) (A) (A) (A) (A) (A) (A) (A) (A) (A)
                 (A) (A) (A) (A) (A) (A) (A) (A) (A) (A) (A) (A)
                 (A) (A) (A) (A) (A) (A) (A) (A) (A) (A) (A) (A)
                 (A) (A) (A) (A) (A) (A) (A) (A) (A) (A) (A)
 The electronic state is 1-A.
 Alpha  occ. eigenvalues --  -20.54873 -11.32430 -11.24196 -11.24125 -11.23997
 Alpha  occ. eigenvalues --  -11.23390 -11.23270 -11.23052 -11.22608 -11.21786
 Alpha  occ. eigenvalues --  -11.21344  -1.36826  -1.14568  -1.09048  -1.02776
 Alpha  occ. eigenvalues --   -0.99735  -0.93698  -0.91761  -0.84024  -0.82142
 Alpha  occ. eigenvalues --   -0.73010  -0.71754  -0.65940  -0.64784  -0.63123
 Alpha  occ. eigenvalues --   -0.60937  -0.60598  -0.59471  -0.57732  -0.57036
 Alpha  occ. eigenvalues --   -0.55575  -0.52916  -0.52831  -0.52246  -0.50127
 Alpha  occ. eigenvalues --   -0.49460  -0.49268  -0.46893  -0.46512  -0.44616
 Alpha  occ. eigenvalues --   -0.39228  -0.34421
 Alpha virt. eigenvalues --    0.14609   0.17534   0.22213   0.23726   0.24639
 Alpha virt. eigenvalues --    0.26547   0.27968   0.28483   0.29537   0.30015
 Alpha virt. eigenvalues --    0.31032   0.32035   0.33193   0.33546   0.33935
 Alpha virt. eigenvalues --    0.34724   0.35331   0.37197   0.38486   0.40064
 Alpha virt. eigenvalues --    0.42919   0.43574   0.44406   0.44804   0.46419
 Alpha virt. eigenvalues --    0.50939   0.52287   0.53027   0.58538   0.69881
 Alpha virt. eigenvalues --    0.70675   0.72612   0.73713   0.74573   0.75142
 Alpha virt. eigenvalues --    0.78250   0.79556   0.81304   0.84684   0.85397
 Alpha virt. eigenvalues --    0.88081   0.89613   0.90194   0.91691   0.93563
 Alpha virt. eigenvalues --    0.95694   0.96357   0.98184   0.99458   1.00437
 Alpha virt. eigenvalues --    1.02072   1.04096   1.04880   1.08788   1.09608
 Alpha virt. eigenvalues --    1.11155   1.12198   1.13064   1.14317   1.14731
 Alpha virt. eigenvalues --    1.15008   1.16899   1.17102   1.18067   1.18770
 Alpha virt. eigenvalues --    1.19603   1.20114   1.21104   1.21414   1.22526
 Alpha virt. eigenvalues --    1.23844   1.25482   1.26904   1.27300   1.33020
 Alpha virt. eigenvalues --    1.36960   1.40198   1.40739   1.43564   1.46838
 Alpha virt. eigenvalues --    1.50063   1.54492   1.58177   1.63159   1.67011
 Alpha virt. eigenvalues --    1.69505   1.74757   1.76095   1.79730   1.89178
 Alpha virt. eigenvalues --    1.90597   1.94653   1.96178   1.96300   2.01992
 Alpha virt. eigenvalues --    2.02124   2.05890   2.10445   2.11163   2.12632
 Alpha virt. eigenvalues --    2.15459   2.16736   2.19251   2.20157   2.21527
 Alpha virt. eigenvalues --    2.24214   2.26122   2.26879   2.29543   2.30894
 Alpha virt. eigenvalues --    2.34116   2.36443   2.37290   2.40222   2.43058
 Alpha virt. eigenvalues --    2.44550   2.46906   2.51087   2.52501   2.56611
 Alpha virt. eigenvalues --    2.59480   2.61423   2.62345   2.66173   2.71172
 Alpha virt. eigenvalues --    2.72635   2.74814   2.77429   2.78272   2.80545
 Alpha virt. eigenvalues --    2.83948   2.84813   2.87852   2.90804   2.95252
 Alpha virt. eigenvalues --    3.04039   3.06577   3.11386   3.12826   3.19336
 Alpha virt. eigenvalues --    3.27146   3.31802   3.37527   3.41021   4.41126
 Alpha virt. eigenvalues --    4.56534   4.60776   4.62497   4.68970   4.71698
 Alpha virt. eigenvalues --    4.80923   4.92958   4.97933   5.08409   5.09754
          Condensed to atoms (all electrons):
               1          2          3          4          5          6
     1  C    5.088474   0.335414  -0.033670  -0.063615   0.004509  -0.000393
     2  C    0.335414   5.317194   0.395518   0.321114  -0.059228   0.004645
     3  H   -0.033670   0.395518   0.529204  -0.039968  -0.001241  -0.000582
     4  C   -0.063615   0.321114  -0.039968   5.170143   0.324872  -0.061914
     5  C    0.004509  -0.059228  -0.001241   0.324872   5.126013   0.342714
     6  C   -0.000393   0.004645  -0.000582  -0.061914   0.342714   5.185937
     7  H   -0.000083   0.001432   0.000031  -0.003090  -0.041492   0.415755
     8  C    0.004572  -0.113397   0.002363   0.002608  -0.059887   0.305144
     9  C   -0.051343   0.314468  -0.040053  -0.046314  -0.001429  -0.044727
    10  O    0.005201  -0.078597   0.000444   0.001450   0.000145   0.001705
    11  C    0.000011  -0.000855  -0.000036   0.006358  -0.053254   0.344635
    12  C   -0.000000   0.000037  -0.000014   0.000320  -0.007548  -0.059257
    13  C   -0.000000  -0.000004   0.000000  -0.000151   0.003024  -0.052199
    14  H    0.394294  -0.037150   0.004021  -0.004093  -0.000023  -0.000012
    15  H    0.394687  -0.034928  -0.002012   0.004621  -0.000112   0.000003
    16  H    0.390396  -0.040163  -0.002893  -0.003971  -0.000032  -0.000002
    17  H   -0.002650  -0.043818   0.004218   0.397792  -0.040995  -0.004240
    18  H   -0.003349  -0.036209  -0.003658   0.400478  -0.035888   0.004767
    19  H   -0.000095   0.004562  -0.000054  -0.038126   0.402139  -0.036282
    20  H   -0.000089  -0.002221   0.002443  -0.043262   0.399831  -0.043306
    21  H   -0.000103   0.004398  -0.000066  -0.000475   0.003836  -0.031969
    22  H   -0.000108   0.003446   0.000306  -0.000008  -0.000858  -0.037611
    23  H    0.000000  -0.000000  -0.000000   0.000001   0.000065   0.003058
    24  H   -0.000000   0.000001  -0.000003  -0.000026  -0.000756  -0.002298
    25  H   -0.000000   0.000000   0.000000  -0.000016  -0.000174   0.001042
    26  H    0.000000  -0.000000  -0.000000   0.000002  -0.000115   0.004062
    27  H   -0.000000   0.000000  -0.000000   0.000002   0.000351  -0.004775
               7          8          9         10         11         12
     1  C   -0.000083   0.004572  -0.051343   0.005201   0.000011  -0.000000
     2  C    0.001432  -0.113397   0.314468  -0.078597  -0.000855   0.000037
     3  H    0.000031   0.002363  -0.040053   0.000444  -0.000036  -0.000014
     4  C   -0.003090   0.002608  -0.046314   0.001450   0.006358   0.000320
     5  C   -0.041492  -0.059887  -0.001429   0.000145  -0.053254  -0.007548
     6  C    0.415755   0.305144  -0.044727   0.001705   0.344635  -0.059257
     7  H    0.532056  -0.041712  -0.002955   0.000185  -0.050700   0.003722
     8  C   -0.041712   5.283466   0.341081  -0.066552  -0.046816  -0.006379
     9  C   -0.002955   0.341081   4.502212   0.560817   0.005317   0.000246
    10  O    0.000185  -0.066552   0.560817   8.123240  -0.000077  -0.000001
    11  C   -0.050700  -0.046816   0.005317  -0.000077   4.895747   0.657988
    12  C    0.003722  -0.006379   0.000246  -0.000001   0.657988   5.113726
    13  C   -0.004607   0.001398  -0.000056   0.000001   0.345358  -0.053416
    14  H   -0.000008  -0.000008  -0.004497   0.001467  -0.000000  -0.000000
    15  H    0.000001   0.000042  -0.004216   0.003182  -0.000000   0.000000
    16  H    0.000000  -0.000039   0.005003   0.000289   0.000000   0.000000
    17  H    0.002454   0.001243  -0.003049   0.000122  -0.000184  -0.000011
    18  H   -0.000007  -0.000676   0.003809  -0.000050  -0.000120  -0.000002
    19  H   -0.002216   0.004203  -0.000317   0.000001  -0.003510   0.000848
    20  H    0.004024  -0.000466  -0.000881  -0.000014  -0.003706   0.000631
    21  H   -0.001460   0.388501  -0.035470   0.004520  -0.004419   0.000735
    22  H    0.003759   0.387924  -0.038278   0.000254  -0.004271   0.001151
    23  H   -0.000098   0.000028   0.000001  -0.000000  -0.037715   0.394632
    24  H    0.000010  -0.000283  -0.000029   0.000000  -0.045577   0.396842
    25  H    0.000474   0.000026   0.000003  -0.000000  -0.039083  -0.004041
    26  H    0.000228  -0.000196   0.000001  -0.000000  -0.041230  -0.003954
    27  H    0.000994   0.000019  -0.000034   0.000000  -0.041017   0.002814
              13         14         15         16         17         18
     1  C   -0.000000   0.394294   0.394687   0.390396  -0.002650  -0.003349
     2  C   -0.000004  -0.037150  -0.034928  -0.040163  -0.043818  -0.036209
     3  H    0.000000   0.004021  -0.002012  -0.002893   0.004218  -0.003658
     4  C   -0.000151  -0.004093   0.004621  -0.003971   0.397792   0.400478
     5  C    0.003024  -0.000023  -0.000112  -0.000032  -0.040995  -0.035888
     6  C   -0.052199  -0.000012   0.000003  -0.000002  -0.004240   0.004767
     7  H   -0.004607  -0.000008   0.000001   0.000000   0.002454  -0.000007
     8  C    0.001398  -0.000008   0.000042  -0.000039   0.001243  -0.000676
     9  C   -0.000056  -0.004497  -0.004216   0.005003  -0.003049   0.003809
    10  O    0.000001   0.001467   0.003182   0.000289   0.000122  -0.000050
    11  C    0.345358  -0.000000  -0.000000   0.000000  -0.000184  -0.000120
    12  C   -0.053416  -0.000000   0.000000   0.000000  -0.000011  -0.000002
    13  C    5.105466   0.000000  -0.000000  -0.000000   0.000005   0.000002
    14  H    0.000000   0.524042  -0.022078  -0.028217   0.002943   0.000049
    15  H   -0.000000  -0.022078   0.502806  -0.026999  -0.000019  -0.000074
    16  H   -0.000000  -0.028217  -0.026999   0.549161   0.000024   0.002053
    17  H    0.000005   0.002943  -0.000019   0.000024   0.543541  -0.025666
    18  H    0.000002   0.000049  -0.000074   0.002053  -0.025666   0.524774
    19  H    0.000072   0.000001   0.000002  -0.000003  -0.002935  -0.002692
    20  H    0.000092  -0.000000   0.000002   0.000003   0.004311  -0.002777
    21  H    0.000368   0.000002  -0.000003   0.000001  -0.000030   0.000014
    22  H    0.000107  -0.000002  -0.000007  -0.000000   0.000029  -0.000006
    23  H   -0.003580  -0.000000  -0.000000   0.000000   0.000000  -0.000000
    24  H    0.003291  -0.000000   0.000000   0.000000  -0.000002   0.000005
    25  H    0.385996   0.000000   0.000000   0.000000   0.000002  -0.000000
    26  H    0.395389  -0.000000   0.000000  -0.000000  -0.000000  -0.000000
    27  H    0.394381  -0.000000   0.000000   0.000000  -0.000003   0.000000
              19         20         21         22         23         24
     1  C   -0.000095  -0.000089  -0.000103  -0.000108   0.000000  -0.000000
     2  C    0.004562  -0.002221   0.004398   0.003446  -0.000000   0.000001
     3  H   -0.000054   0.002443  -0.000066   0.000306  -0.000000  -0.000003
     4  C   -0.038126  -0.043262  -0.000475  -0.000008   0.000001  -0.000026
     5  C    0.402139   0.399831   0.003836  -0.000858   0.000065  -0.000756
     6  C   -0.036282  -0.043306  -0.031969  -0.037611   0.003058  -0.002298
     7  H   -0.002216   0.004024  -0.001460   0.003759  -0.000098   0.000010
     8  C    0.004203  -0.000466   0.388501   0.387924   0.000028  -0.000283
     9  C   -0.000317  -0.000881  -0.035470  -0.038278   0.000001  -0.000029
    10  O    0.000001  -0.000014   0.004520   0.000254  -0.000000   0.000000
    11  C   -0.003510  -0.003706  -0.004419  -0.004271  -0.037715  -0.045577
    12  C    0.000848   0.000631   0.000735   0.001151   0.394632   0.396842
    13  C    0.000072   0.000092   0.000368   0.000107  -0.003580   0.003291
    14  H    0.000001  -0.000000   0.000002  -0.000002  -0.000000  -0.000000
    15  H    0.000002   0.000002  -0.000003  -0.000007  -0.000000   0.000000
    16  H   -0.000003   0.000003   0.000001  -0.000000   0.000000   0.000000
    17  H   -0.002935   0.004311  -0.000030   0.000029   0.000000  -0.000002
    18  H   -0.002692  -0.002777   0.000014  -0.000006  -0.000000   0.000005
    19  H    0.525129  -0.024666  -0.000085  -0.000057  -0.000025   0.000091
    20  H   -0.024666   0.545297  -0.000040   0.001926   0.000001   0.000397
    21  H   -0.000085  -0.000040   0.478866  -0.015826  -0.000013   0.000045
    22  H   -0.000057   0.001926  -0.015826   0.506999  -0.000038   0.000554
    23  H   -0.000025   0.000001  -0.000013  -0.000038   0.491483  -0.025759
    24  H    0.000091   0.000397   0.000045   0.000554  -0.025759   0.505642
    25  H    0.000106  -0.000001  -0.000003   0.000002   0.000339  -0.000127
    26  H   -0.000009   0.000001  -0.000047   0.000001   0.001924   0.000047
    27  H    0.000011  -0.000004   0.000241  -0.000027   0.000043  -0.000105
              25         26         27
     1  C   -0.000000   0.000000  -0.000000
     2  C    0.000000  -0.000000   0.000000
     3  H    0.000000  -0.000000  -0.000000
     4  C   -0.000016   0.000002   0.000002
     5  C   -0.000174  -0.000115   0.000351
     6  C    0.001042   0.004062  -0.004775
     7  H    0.000474   0.000228   0.000994
     8  C    0.000026  -0.000196   0.000019
     9  C    0.000003   0.000001  -0.000034
    10  O   -0.000000  -0.000000   0.000000
    11  C   -0.039083  -0.041230  -0.041017
    12  C   -0.004041  -0.003954   0.002814
    13  C    0.385996   0.395389   0.394381
    14  H    0.000000  -0.000000  -0.000000
    15  H    0.000000   0.000000   0.000000
    16  H    0.000000  -0.000000   0.000000
    17  H    0.000002  -0.000000  -0.000003
    18  H   -0.000000  -0.000000   0.000000
    19  H    0.000106  -0.000009   0.000011
    20  H   -0.000001   0.000001  -0.000004
    21  H   -0.000003  -0.000047   0.000241
    22  H    0.000002   0.000001  -0.000027
    23  H    0.000339   0.001924   0.000043
    24  H   -0.000127   0.000047  -0.000105
    25  H    0.529591  -0.022880  -0.029751
    26  H   -0.022880   0.514915  -0.026051
    27  H   -0.029751  -0.026051   0.532496
 Mulliken charges:
               1
     1  C   -0.462061
     2  C   -0.255663
     3  H    0.185701
     4  C   -0.324732
     5  C   -0.304467
     6  C   -0.233902
     7  H    0.183304
     8  C   -0.386207
     9  C    0.540688
    10  O   -0.557733
    11  C    0.117156
    12  C   -0.439068
    13  C   -0.520937
    14  H    0.169271
    15  H    0.185104
    16  H    0.155387
    17  H    0.166918
    18  H    0.175221
    19  H    0.173909
    20  H    0.162475
    21  H    0.208480
    22  H    0.190638
    23  H    0.175655
    24  H    0.168040
    25  H    0.178496
    26  H    0.177912
    27  H    0.170416
 Sum of Mulliken charges =  -0.00000
 Mulliken charges with hydrogens summed into heavy atoms:
               1
     1  C    0.047701
     2  C   -0.069963
     4  C    0.017407
     5  C    0.031917
     6  C   -0.050598
     8  C    0.012911
     9  C    0.540688
    10  O   -0.557733
    11  C    0.117156
    12  C   -0.095374
    13  C    0.005887
 DipInt: DoE/N= T F RetVal/Mat= T F Init=T NMatP=  1 IDeriv=0 Min/MaxMlt=  0  4
 Entering OneElI...
 OneElI was handed   134115475 working-precision words.
 Multipole integrals L=0 to 4 MinM= 0 MaxM= 0.
 Requested accuracy = 0.1000D-12
 ShPair: Thresh= 1.00D-13 NBox=     0 BxSize= 0.00D+00 RnKept= 1.59D+01
         NSMCal=                 2926 NSMKep=                2701
 PrmmSu-InSpLW:  IPartL=    0 NPrtUS=    1 NPrtUL=    1 DoSpLW=F IThBeg=    0 IThEnd=    0 NThAct=    1.
 PrSmSu:  IncTry=   512 NBBP=           2701 NTPThr=   100 NPartT=    1 Incr=          27 LDynOK=F GPUOK=F.
 PrsmSu:  NPrtUS=   1 ThrOK=F IAlg=2 LenDen=           0 ISkipM=0 DoSpLW=F IThBeg=    0 IThEnd=    0.
 Prism:   IPart=     0 DynPar=F LinDyn=F Incr=          27.
 PRISM was handed   133891236 working-precision words and  2701 shell-pairs
 IPart=  0 NShTot=        2701 NBatch=          42 AvBLen=        64.3
 PrsmSu-ThDecC:  IPartSL=    0    0 NPrtUSL=    1    1 IThBeg=    0 IThEnd=    0 CPU=   -1 GPU=   -1 NThAct=    1.
 PrSmSu:  NxtVal=             28.
 Electronic moments (au):
        -84.00000000         -0.73611664         -1.05754511          0.15168501
      -1511.86460158       -400.87412643       -211.19657585         -5.61529919
          2.11622635          0.60766844        693.20104842        -77.72840149
        -56.90864665       -593.51366360        -87.84439037        247.93672463
        531.60322127         32.86476596         74.71673394       -123.79852087
     -54165.43780956      -4976.42288047      -1873.77305420       2263.35744232
      -1121.93032864       -941.35697917        -85.10212316        208.29854500
        100.84820390      -4565.33773003      -5090.77545328       -655.04944372
        768.75980163        159.44638638        140.93969478
 Electronic spatial extent (au):  <R**2>=           2123.9353
 DipInt: DoE/N= F T RetVal/Mat= T F Init=T NMatP=  1 IDeriv=0 Min/MaxMlt=  0  4
 Nuclear    moments (au):
         84.00000000          0.00000000          0.00000000         -0.00000000
       1457.88689688        344.27588012        161.83023935          0.00000000
         -0.00000000         -0.00000000       -709.56930913         65.38627316
         58.27319665        580.11148451         73.11325897       -244.93874030
       -527.50450477        -30.38418321        -74.25474878        127.17844632
      48691.36855554       3525.71407029       1135.84049644      -2322.89766634
       1135.51482395        871.75589279         93.46349969       -215.71311593
       -110.92401606       3314.01752043       4059.46209775        296.33179048
       -756.37801387       -124.65260444       -118.00675322
 Total      moments (au):
         -0.00000000         -0.73611664         -1.05754511          0.15168501
        -53.97770470        -56.59824631        -49.36633650         -5.61529919
          2.11622635          0.60766844        -16.36826072        -12.34212833
          1.36455000        -13.40217909        -14.73113140          2.99798433
          4.09871649          2.48058274          0.46198516          3.37992545
      -5474.06925402      -1450.70881018       -737.93255777        -59.54022402
         13.58449531        -69.60108638          8.36137653         -7.41457093
        -10.07581216      -1251.32020960      -1031.31335552       -358.71765325
         12.38178777         34.79378194         22.93294156
 Traceless Quadrup. (au):
         -0.66360886         -3.28415048          3.94775934         -5.61529919
          2.11622635          0.60766844
 Charge=             -0.0000 electrons
 Dipole moment (field-independent basis, Debye):
    X=             -1.8710    Y=             -2.6880    Z=              0.3855  Tot=              3.2977
 Quadrupole moment (field-independent basis, Debye-Ang):
   XX=            -72.6019   YY=            -76.1266   ZZ=            -66.3994
   XY=             -7.5528   XZ=              2.8464   YZ=              0.8173
 Traceless Quadrupole moment (field-independent basis, Debye-Ang):
   XX=             -0.8926   YY=             -4.4173   ZZ=              5.3099
   XY=             -7.5528   XZ=              2.8464   YZ=              0.8173
 Octapole moment (field-independent basis, Debye-Ang**2):
  XXX=            -11.6503  YYY=             -8.7847  ZZZ=              0.9712  XYY=             -9.5392
  XXY=            -10.4851  XXZ=              2.1338  XZZ=              2.9173  YZZ=              1.7656
  YYZ=              0.3288  XYZ=              2.4057
 Hexadecapole moment (field-independent basis, Debye-Ang**3):
 XXXX=          -2061.7970 YYYY=           -546.4065 ZZZZ=           -277.9408 XXXY=            -22.4257
 XXXZ=              5.1166 YYYX=            -26.2151 YYYZ=              3.1493 ZZZX=             -2.7927
 ZZZY=             -3.7950 XXYY=           -471.3072 XXZZ=           -388.4421 YYZZ=           -135.1103
 XXYZ=              4.6636 YYXZ=             13.1050 ZZXY=              8.6376
 N-N= 6.319887005736D+02 E-N=-2.343509001982D+03  KE= 4.622056279594D+02
 Entering OneElI...
 OneElI was handed   134134079 working-precision words.
 Calculate electrostatic properties
    NBasis =   197  MinDer = 0  MaxDer = 0
    NGrid  =    27  NMatD  =   1
 Requested accuracy = 0.1000D-12
 PrtBox:  NBox=     1 Levels=  1 BoxLen=   29.89 SMaxX=       15.52
          Shift=            7.955340            4.677676            3.443513
 Box      1 Number                   0 centers from      1 to     76:
 ShPair: Thresh= 1.00D-13 NBox=     1 BxSize= 2.99D+01 RnKept= 1.59D+01
         NSMCal=                 2926 NSMKep=                2538
 PrmmSu-InSpLW:  IPartL=    0 NPrtUS=    1 NPrtUL=    1 DoSpLW=F IThBeg=    0 IThEnd=    0 NThAct=    1.
 PrSmSu:  IncTry=   512 NBBP=          68526 NTPThr=   100 NPartT=    1 Incr=         512 LDynOK=F GPUOK=F.
 PrsmSu:  NPrtUS=   1 ThrOK=F IAlg=2 LenDen=           0 ISkipM=0 DoSpLW=F IThBeg=    0 IThEnd=    0.
 Prism:   IPart=     0 DynPar=F LinDyn=F Incr=         512.
 PRISM was handed   133927038 working-precision words and  2538 shell-pairs
 IPart=  0 NShTot=       68526 NBatch=        2538 AvBLen=        27.0
 PrsmSu-ThDecC:  IPartSL=    0    0 NPrtUSL=    1    1 IThBeg=    0 IThEnd=    0 CPU=   -1 GPU=   -1 NThAct=    1.
 PrSmSu:  NxtVal=            513.
 --------------------------------------------------------
       Center         ----      EFG at Nuclei      ----
                      3XX-RR        3YY-RR        3ZZ-RR
 --------------------------------------------------------
     1   Atom       -0.042444      0.025021      0.017424
     2   Atom        0.019172     -0.009345     -0.009827
     3   Atom        0.143355      0.129386     -0.272741
     4   Atom        0.012263     -0.009917     -0.002346
     5   Atom        0.004459     -0.016443      0.011984
     6   Atom        0.003419     -0.003649      0.000229
     7   Atom        0.132165      0.133359     -0.265524
     8   Atom       -0.024229      0.035196     -0.010967
     9   Atom        0.310273      0.283723     -0.593996
    10   Atom        1.232389      0.121189     -1.353577
    11   Atom        0.131754     -0.338549      0.206795
    12   Atom        0.062160     -0.200885      0.138725
    13   Atom        0.006205      0.001465     -0.007669
    14   Atom        0.139339      0.143398     -0.282737
    15   Atom        0.015600     -0.058955      0.043354
    16   Atom        0.073191     -0.210230      0.137040
    17   Atom        0.139156      0.137650     -0.276806
    18   Atom        0.086921     -0.216164      0.129243
    19   Atom        0.036631     -0.066565      0.029934
    20   Atom        0.140047      0.122370     -0.262417
    21   Atom        0.097557     -0.208945      0.111388
    22   Atom        0.135183      0.145922     -0.281104
    23   Atom       -0.290068      0.167756      0.122311
    24   Atom       -0.043896      0.147642     -0.103747
    25   Atom        0.110337     -0.166200      0.055863
    26   Atom       -0.143362      0.055665      0.087697
    27   Atom        0.064177     -0.002051     -0.062126
 --------------------------------------------------------
                        XY            XZ            YZ
 --------------------------------------------------------
     1   Atom        0.021309      0.026535      0.003258
     2   Atom        0.034282     -0.013851     -0.003236
     3   Atom        0.000518      0.017432      0.077149
     4   Atom       -0.014742     -0.006418     -0.022375
     5   Atom        0.007112     -0.000084      0.016092
     6   Atom       -0.024998      0.003058     -0.013540
     7   Atom       -0.004741      0.030191      0.070411
     8   Atom        0.019116     -0.012246     -0.034818
     9   Atom       -0.069644     -0.174462     -0.191507
    10   Atom       -1.300881     -0.234673     -0.124825
    11   Atom       -0.030269     -0.055275     -0.120903
    12   Atom       -0.021309     -0.039891     -0.076617
    13   Atom        0.007032     -0.023242      0.016105
    14   Atom       -0.004861      0.029813      0.076823
    15   Atom       -0.165337     -0.111256     -0.152191
    16   Atom        0.161331     -0.031355      0.078571
    17   Atom       -0.007945      0.037930      0.055359
    18   Atom        0.140011     -0.034958      0.083214
    19   Atom       -0.148033     -0.115101     -0.159191
    20   Atom       -0.006277      0.045615      0.093383
    21   Atom        0.124990     -0.041739      0.108268
    22   Atom       -0.005658      0.049794      0.035667
    23   Atom        0.016959      0.104285      0.001754
    24   Atom        0.064580     -0.216520      0.077774
    25   Atom       -0.108932     -0.064030     -0.170856
    26   Atom        0.171269      0.127221     -0.072181
    27   Atom       -0.109974      0.124878      0.183949
 --------------------------------------------------------


 ---------------------------------------------------------------------------------
              Nuclear Quadrupole Coupling Constant in Principal Axis System
 ---------------------------------------------------------------------------------

       Atom             a.u.   MegaHertz   Gauss  10(-4) cm-1        Axes


 ---------------------------------------------------------------------------------

 No NMR shielding tensors so no spin-rotation constants.
 Leave Link  601 at Thu Nov  2 13:05:27 2023, MaxMem=   134217728 cpu:               0.1 elap:               0.1
 FitSet:  NAtFit=    27 NAtPot=    27 NAtFrz=     0 MDM=    31 TotChg=   0.00000
 Merz-Kollman atomic radii used.
 Atom Element Radius
    1     6    1.50
    2     6    1.50
    3     1    1.20
    4     6    1.50
    5     6    1.50
    6     6    1.50
    7     1    1.20
    8     6    1.50
    9     6    1.50
   10     8    1.40
   11     6    1.50
   12     6    1.50
   13     6    1.50
   14     1    1.20
   15     1    1.20
   16     1    1.20
   17     1    1.20
   18     1    1.20
   19     1    1.20
   20     1    1.20
   21     1    1.20
   22     1    1.20
   23     1    1.20
   24     1    1.20
   25     1    1.20
   26     1    1.20
   27     1    1.20
 Generate VDW surfaces: Layer= 4 Dens= 6 Start= 1.400 Inc= 0.200

 **********************************************************************

            Electrostatic Properties Using The SCF Density.

 **********************************************************************

       Atomic Center    1 is at   3.419869 -0.448938 -0.104117
       Atomic Center    2 is at   1.962556 -0.416482  0.345277
       Atomic Center    3 is at   1.927300 -0.613057  1.424428
       Atomic Center    4 is at   1.142499 -1.475377 -0.396368
       Atomic Center    5 is at  -0.339336 -1.415472 -0.021936
       Atomic Center    6 is at  -0.923066 -0.027045 -0.310764
       Atomic Center    7 is at  -0.845021  0.159054 -1.390447
       Atomic Center    8 is at  -0.145488  1.062678  0.429758
       Atomic Center    9 is at   1.334539  0.955624  0.125977
       Atomic Center   10 is at   1.989638  1.947260 -0.190774
       Atomic Center   11 is at  -2.375944  0.017207  0.050651
       Atomic Center   12 is at  -2.804363 -0.217326  1.299667
       Atomic Center   13 is at  -3.326001  0.338599 -1.065838
       Atomic Center   14 is at   3.495478 -0.256844 -1.178219
       Atomic Center   15 is at   4.002205  0.311960  0.425016
       Atomic Center   16 is at   3.863538 -1.427264  0.102728
       Atomic Center   17 is at   1.241391 -1.336180 -1.480902
       Atomic Center   18 is at   1.531626 -2.475319 -0.167710
       Atomic Center   19 is at  -0.880808 -2.179795 -0.591558
       Atomic Center   20 is at  -0.456960 -1.666293  1.039924
       Atomic Center   21 is at  -0.494816  2.056245  0.123528
       Atomic Center   22 is at  -0.272288  0.983779  1.516366
       Atomic Center   23 is at  -3.859649 -0.183195  1.549818
       Atomic Center   24 is at  -2.109790 -0.448866  2.101280
       Atomic Center   25 is at  -3.650436 -0.580892 -1.564882
       Atomic Center   26 is at  -4.209785  0.851954 -0.674795
       Atomic Center   27 is at  -2.870670  0.985823 -1.822228
      ESP Fit Center   28 is at   3.829558 -0.448938  1.955532
      ESP Fit Center   29 is at   3.624713 -0.803739  1.955532
      ESP Fit Center   30 is at   3.821686 -1.144906  1.836030
      ESP Fit Center   31 is at   4.115837 -0.850755  1.836030
      ESP Fit Center   32 is at   4.507782 -0.870397  1.641969
      ESP Fit Center   33 is at   4.844643 -0.867289  1.380807
      ESP Fit Center   34 is at   5.437357 -0.863542  0.305573
      ESP Fit Center   35 is at   5.519869 -0.448938 -0.104117
      ESP Fit Center   36 is at   5.479518 -0.858627 -0.104117
      ESP Fit Center   37 is at   5.479518 -0.448938 -0.513807
      ESP Fit Center   38 is at   5.437357 -0.034333 -0.513807
      ESP Fit Center   39 is at   5.437357 -0.863542 -0.513807
      ESP Fit Center   40 is at   5.360016 -0.448938 -0.907752
      ESP Fit Center   41 is at   5.314656 -0.031863 -0.907752
      ESP Fit Center   42 is at   5.180698  0.365709 -0.907752
      ESP Fit Center   43 is at   4.964406  0.725189 -0.907752
      ESP Fit Center   44 is at   3.938913  1.420491 -0.907752
      ESP Fit Center   45 is at   5.314656 -0.866012 -0.907752
      ESP Fit Center   46 is at   5.165955 -0.448938 -1.270814
      ESP Fit Center   47 is at   3.209401 -2.182293 -1.270814
      ESP Fit Center   48 is at   4.965951 -1.260384 -1.270814
      ESP Fit Center   49 is at   5.115217 -0.866803 -1.270814
      ESP Fit Center   50 is at   3.208542 -1.918748 -1.589041
      ESP Fit Center   51 is at   3.631195 -1.918748 -1.589041
      ESP Fit Center   52 is at   4.036728 -1.799672 -1.589041
      ESP Fit Center   53 is at   2.934974  0.705749  1.830202
      ESP Fit Center   54 is at   2.579415  0.934253  1.830202
      ESP Fit Center   55 is at   1.927300 -0.613057  3.104428
      ESP Fit Center   56 is at   2.362116 -0.613057  3.047183
      ESP Fit Center   57 is at   2.144708 -0.236496  3.047183
      ESP Fit Center   58 is at   1.709892 -0.236496  3.047183
      ESP Fit Center   59 is at   1.492484 -0.613057  3.047183
      ESP Fit Center   60 is at   1.709892 -0.989619  3.047183
      ESP Fit Center   61 is at   2.144708 -0.989619  3.047183
      ESP Fit Center   62 is at   2.767300 -0.613057  2.879351
      ESP Fit Center   63 is at   2.654762 -0.193057  2.879351
      ESP Fit Center   64 is at   2.347300  0.114404  2.879351
      ESP Fit Center   65 is at   1.927300  0.226943  2.879351
      ESP Fit Center   66 is at   1.507300  0.114404  2.879351
      ESP Fit Center   67 is at   1.199839 -0.193057  2.879351
      ESP Fit Center   68 is at   1.087300 -0.613057  2.879351
      ESP Fit Center   69 is at   1.199839 -1.033057  2.879351
      ESP Fit Center   70 is at   1.507300 -1.340519  2.879351
      ESP Fit Center   71 is at   1.927300 -1.453057  2.879351
      ESP Fit Center   72 is at   2.347300 -1.340519  2.879351
      ESP Fit Center   73 is at   2.654762 -1.033057  2.879351
      ESP Fit Center   74 is at   3.115240 -0.613057  2.612367
      ESP Fit Center   75 is at   3.035021 -0.183924  2.612367
      ESP Fit Center   76 is at   2.805198  0.187252  2.612367
      ESP Fit Center   77 is at   2.456810  0.450342  2.612367
      ESP Fit Center   78 is at   2.036909  0.569814  2.612367
      ESP Fit Center   79 is at   1.602205  0.529533  2.612367
      ESP Fit Center   80 is at   1.211407  0.334939  2.612367
      ESP Fit Center   81 is at   0.917294  0.012312  2.612367
      ESP Fit Center   82 is at   0.759588 -0.394774  2.612367
      ESP Fit Center   83 is at   0.759588 -0.831341  2.612367
      ESP Fit Center   84 is at   0.917294 -1.238427  2.612367
      ESP Fit Center   85 is at   1.211407 -1.561054  2.612367
      ESP Fit Center   86 is at   1.602205 -1.755648  2.612367
      ESP Fit Center   87 is at   2.036909 -1.795929  2.612367
      ESP Fit Center   88 is at   2.456810 -1.676457  2.612367
      ESP Fit Center   89 is at   2.805198 -1.413367  2.612367
      ESP Fit Center   90 is at   3.035021 -1.042191  2.612367
      ESP Fit Center   91 is at   3.382223 -0.613057  2.264428
      ESP Fit Center   92 is at   3.317585 -0.184211  2.264428
      ESP Fit Center   93 is at   3.129414  0.206530  2.264428
      ESP Fit Center   94 is at   2.834430  0.524447  2.264428
      ESP Fit Center   95 is at   2.458843  0.741292  2.264428
      ESP Fit Center   96 is at   2.036027  0.837797  2.264428
      ESP Fit Center   97 is at   1.603549  0.805387  2.264428
      ESP Fit Center   98 is at   1.199839  0.646943  2.264428
      ESP Fit Center   99 is at   0.488628 -0.396213  2.264428
      ESP Fit Center  100 is at   0.488628 -0.829902  2.264428
      ESP Fit Center  101 is at   0.616460 -1.244325  2.264428
      ESP Fit Center  102 is at   0.860766 -1.602656  2.264428
      ESP Fit Center  103 is at   1.199839 -1.873057  2.264428
      ESP Fit Center  104 is at   1.603549 -2.031502  2.264428
      ESP Fit Center  105 is at   2.036027 -2.063912  2.264428
      ESP Fit Center  106 is at   2.458843 -1.967407  2.264428
      ESP Fit Center  107 is at   2.834430 -1.750562  2.264428
      ESP Fit Center  108 is at   3.129414 -1.432645  2.264428
      ESP Fit Center  109 is at   3.317585 -1.041903  2.264428
      ESP Fit Center  110 is at   3.074762  0.534404  1.859244
      ESP Fit Center  111 is at   1.115922 -2.018405  1.859244
      ESP Fit Center  112 is at   1.507300 -2.180519  1.859244
      ESP Fit Center  113 is at   1.927300 -2.235813  1.859244
      ESP Fit Center  114 is at   2.347300 -2.180519  1.859244
      ESP Fit Center  115 is at   2.738678 -2.018405  1.859244
      ESP Fit Center  116 is at   3.074762 -1.760519  1.859244
      ESP Fit Center  117 is at   3.332648 -1.424435  1.859244
      ESP Fit Center  118 is at   2.446449 -2.210832  1.424428
      ESP Fit Center  119 is at   2.827489 -2.031528  1.424428
      ESP Fit Center  120 is at   1.142499 -2.279012  1.543779
      ESP Fit Center  121 is at   0.424376 -3.277728 -1.200003
      ESP Fit Center  122 is at   2.903329 -2.290023 -1.200003
      ESP Fit Center  123 is at   0.523328 -3.107996 -1.563066
      ESP Fit Center  124 is at   0.932031 -3.208732 -1.563066
      ESP Fit Center  125 is at   2.688581 -2.286823 -1.563066
      ESP Fit Center  126 is at   2.837847 -1.893242 -1.563066
      ESP Fit Center  127 is at   0.170080 -2.597607 -1.881292
      ESP Fit Center  128 is at   0.525639 -2.826111 -1.881292
      ESP Fit Center  129 is at   0.931172 -2.945186 -1.881292
      ESP Fit Center  130 is at  -2.001765 -2.415722  0.781700
      ESP Fit Center  131 is at  -1.747874 -2.749710  0.781700
      ESP Fit Center  132 is at  -1.428122 -3.021310  0.781700
      ESP Fit Center  133 is at  -1.057459 -3.217823  0.781700
      ESP Fit Center  134 is at  -0.653217 -3.330060  0.781700
      ESP Fit Center  135 is at  -0.234299 -3.352774  0.781700
      ESP Fit Center  136 is at   0.179708 -3.284901  0.781700
      ESP Fit Center  137 is at  -0.027448 -3.451370  0.387754
      ESP Fit Center  138 is at   0.070353 -3.475121 -0.021936
      ESP Fit Center  139 is at  -0.339336 -1.415472 -2.121936
      ESP Fit Center  140 is at  -1.895485 -1.149276 -1.795689
      ESP Fit Center  141 is at   0.302440  1.306516 -1.825263
      ESP Fit Center  142 is at  -0.033644  1.564402 -1.825263
      ESP Fit Center  143 is at  -0.425021  1.726516 -1.825263
      ESP Fit Center  144 is at  -0.845021  1.781810 -1.825263
      ESP Fit Center  145 is at  -1.265021  1.726516 -1.825263
      ESP Fit Center  146 is at   0.609901  0.159054 -2.230447
      ESP Fit Center  147 is at   0.545263  0.587900 -2.230447
      ESP Fit Center  148 is at   0.357092  0.978641 -2.230447
      ESP Fit Center  149 is at   0.062108  1.296559 -2.230447
      ESP Fit Center  150 is at  -0.313478  1.513404 -2.230447
      ESP Fit Center  151 is at  -0.736295  1.609909 -2.230447
      ESP Fit Center  152 is at  -1.168772  1.577499 -2.230447
      ESP Fit Center  153 is at  -1.911555 -0.830544 -2.230447
      ESP Fit Center  154 is at  -1.572483 -1.100946 -2.230447
      ESP Fit Center  155 is at  -1.168772 -1.259390 -2.230447
      ESP Fit Center  156 is at  -0.736295 -1.291800 -2.230447
      ESP Fit Center  157 is at  -0.313478 -1.195295 -2.230447
      ESP Fit Center  158 is at   0.342918  0.159054 -2.578386
      ESP Fit Center  159 is at   0.262699  0.588188 -2.578386
      ESP Fit Center  160 is at   0.032876  0.959364 -2.578386
      ESP Fit Center  161 is at  -0.315511  1.222454 -2.578386
      ESP Fit Center  162 is at  -0.735412  1.341926 -2.578386
      ESP Fit Center  163 is at  -1.170116  1.301645 -2.578386
      ESP Fit Center  164 is at  -1.855028 -0.466315 -2.578386
      ESP Fit Center  165 is at  -1.560915 -0.788942 -2.578386
      ESP Fit Center  166 is at  -1.170116 -0.983536 -2.578386
      ESP Fit Center  167 is at  -0.735412 -1.023818 -2.578386
      ESP Fit Center  168 is at  -0.315511 -0.904345 -2.578386
      ESP Fit Center  169 is at   0.032876 -0.641255 -2.578386
      ESP Fit Center  170 is at   0.262699 -0.270079 -2.578386
      ESP Fit Center  171 is at  -0.005021  0.159054 -2.845369
      ESP Fit Center  172 is at  -0.117560  0.579054 -2.845369
      ESP Fit Center  173 is at  -0.425021  0.886516 -2.845369
      ESP Fit Center  174 is at  -0.845021  0.999054 -2.845369
      ESP Fit Center  175 is at  -1.265021  0.886516 -2.845369
      ESP Fit Center  176 is at  -1.572483  0.579054 -2.845369
      ESP Fit Center  177 is at  -1.685021  0.159054 -2.845369
      ESP Fit Center  178 is at  -1.572483 -0.260946 -2.845369
      ESP Fit Center  179 is at  -1.265021 -0.568407 -2.845369
      ESP Fit Center  180 is at  -0.845021 -0.680946 -2.845369
      ESP Fit Center  181 is at  -0.425021 -0.568407 -2.845369
      ESP Fit Center  182 is at  -0.117560 -0.260946 -2.845369
      ESP Fit Center  183 is at  -0.410205  0.159054 -3.013202
      ESP Fit Center  184 is at  -0.627613  0.535616 -3.013202
      ESP Fit Center  185 is at  -1.062429  0.535616 -3.013202
      ESP Fit Center  186 is at  -1.279837  0.159054 -3.013202
      ESP Fit Center  187 is at  -1.062429 -0.217507 -3.013202
      ESP Fit Center  188 is at  -0.627613 -0.217507 -3.013202
      ESP Fit Center  189 is at  -0.845021  0.159054 -3.070447
      ESP Fit Center  190 is at   0.846402  2.499678  1.596456
      ESP Fit Center  191 is at   0.473683  2.695297  1.596456
      ESP Fit Center  192 is at   0.064980  2.796033  1.596456
      ESP Fit Center  193 is at  -1.452452  2.220547  1.596456
      ESP Fit Center  194 is at   0.763293  2.776821  1.233394
      ESP Fit Center  195 is at  -1.807917  2.062928  1.233394
      ESP Fit Center  196 is at   0.256330  1.758646 -1.510389
      ESP Fit Center  197 is at  -0.145488  1.866313 -1.510389
      ESP Fit Center  198 is at   1.334539  0.955624  2.225977
      ESP Fit Center  199 is at   1.744228  0.955624  2.185627
      ESP Fit Center  200 is at   1.539383  1.310425  2.185627
      ESP Fit Center  201 is at   2.138174  0.955624  2.066124
      ESP Fit Center  202 is at   2.030507  1.357441  2.066124
      ESP Fit Center  203 is at   1.736356  1.651592  2.066124
      ESP Fit Center  204 is at   1.334539  1.759259  2.066124
      ESP Fit Center  205 is at   2.501236  0.955624  1.872064
      ESP Fit Center  206 is at   2.422452  1.377083  1.872064
      ESP Fit Center  207 is at   2.196739  1.741623  1.872064
      ESP Fit Center  208 is at   1.854580  2.000008  1.872064
      ESP Fit Center  209 is at   1.442188  2.117344  1.872064
      ESP Fit Center  210 is at   1.015257  2.077783  1.872064
      ESP Fit Center  211 is at   2.759313  1.373975  1.610902
      ESP Fit Center  212 is at   1.123212  2.425433  1.610902
      ESP Fit Center  213 is at   0.362120  2.077854 -1.358947
      ESP Fit Center  214 is at   0.631446  1.886668 -1.620109
      ESP Fit Center  215 is at   0.342592  1.569811 -1.620109
      ESP Fit Center  216 is at   0.638570  1.357441 -1.814170
      ESP Fit Center  217 is at   1.736356  0.259655 -1.814170
      ESP Fit Center  218 is at   2.030507  0.553806 -1.814170
      ESP Fit Center  219 is at   1.744228  0.955624 -1.933672
      ESP Fit Center  220 is at   1.129694  1.310425 -1.933672
      ESP Fit Center  221 is at   0.924849  0.955624 -1.933672
      ESP Fit Center  222 is at   1.129694  0.600822 -1.933672
      ESP Fit Center  223 is at   1.539383  0.600822 -1.933672
      ESP Fit Center  224 is at   1.334539  0.955624 -1.974023
      ESP Fit Center  225 is at   2.397145  1.947260  1.726395
      ESP Fit Center  226 is at   2.193392  2.300171  1.726395
      ESP Fit Center  227 is at   1.785885  2.300171  1.726395
      ESP Fit Center  228 is at   2.786842  1.947260  1.599775
      ESP Fit Center  229 is at   2.680037  2.345862  1.599775
      ESP Fit Center  230 is at   2.388240  2.637659  1.599775
      ESP Fit Center  231 is at   1.989638  2.744464  1.599775
      ESP Fit Center  232 is at   1.591036  2.637659  1.599775
      ESP Fit Center  233 is at   3.141697  1.947260  1.394899
      ESP Fit Center  234 is at   3.063901  2.363432  1.394899
      ESP Fit Center  235 is at   2.841020  2.723397  1.394899
      ESP Fit Center  236 is at   2.503155  2.978541  1.394899
      ESP Fit Center  237 is at   2.095937  3.094405  1.394899
      ESP Fit Center  238 is at   1.674362  3.055340  1.394899
      ESP Fit Center  239 is at   1.295367  2.866623  1.394899
      ESP Fit Center  240 is at   3.063901  1.531088  1.394899
      ESP Fit Center  241 is at   3.446202  1.947260  1.120722
      ESP Fit Center  242 is at   3.387201  2.357622  1.120722
      ESP Fit Center  243 is at   3.214978  2.734738  1.120722
      ESP Fit Center  244 is at   2.943485  3.048058  1.120722
      ESP Fit Center  245 is at   2.594717  3.272197  1.120722
      ESP Fit Center  246 is at   2.196929  3.388998  1.120722
      ESP Fit Center  247 is at   1.782347  3.388998  1.120722
      ESP Fit Center  248 is at   1.384560  3.272197  1.120722
      ESP Fit Center  249 is at   1.035792  3.048058  1.120722
      ESP Fit Center  250 is at   3.687048  1.947260  0.789226
      ESP Fit Center  251 is at   3.633721  2.369389  0.789226
      ESP Fit Center  252 is at   3.477090  2.764994  0.789226
      ESP Fit Center  253 is at   3.226997  3.109217  0.789226
      ESP Fit Center  254 is at   2.899156  3.380431  0.789226
      ESP Fit Center  255 is at   2.514167  3.561593  0.789226
      ESP Fit Center  256 is at   2.096219  3.641320  0.789226
      ESP Fit Center  257 is at   1.671575  3.614604  0.789226
      ESP Fit Center  258 is at   1.266916  3.483122  0.789226
      ESP Fit Center  259 is at   0.907668  3.255137  0.789226
      ESP Fit Center  260 is at   3.806973  2.362055  0.414899
      ESP Fit Center  261 is at   3.669108  2.756050  0.414899
      ESP Fit Center  262 is at   3.447027  3.109489  0.414899
      ESP Fit Center  263 is at   3.151867  3.404649  0.414899
      ESP Fit Center  264 is at   2.798428  3.626730  0.414899
      ESP Fit Center  265 is at   2.404433  3.764595  0.414899
      ESP Fit Center  266 is at   1.989638  3.811331  0.414899
      ESP Fit Center  267 is at   1.574843  3.764595  0.414899
      ESP Fit Center  268 is at   1.180848  3.626730  0.414899
      ESP Fit Center  269 is at   0.827409  3.404649  0.414899
      ESP Fit Center  270 is at   3.938901  1.947260  0.014102
      ESP Fit Center  271 is at   3.893328  2.366294  0.014102
      ESP Fit Center  272 is at   3.758741  2.765734  0.014102
      ESP Fit Center  273 is at   3.541433  3.126904  0.014102
      ESP Fit Center  274 is at   3.251564  3.432914  0.014102
      ESP Fit Center  275 is at   2.902689  3.669457  0.014102
      ESP Fit Center  276 is at   2.511121  3.825472  0.014102
      ESP Fit Center  277 is at   2.095169  3.893664  0.014102
      ESP Fit Center  278 is at   1.674282  3.870844  0.014102
      ESP Fit Center  279 is at   1.268142  3.758080  0.014102
      ESP Fit Center  280 is at   0.895737  3.560644  0.014102
      ESP Fit Center  281 is at   3.938901  1.947260 -0.395650
      ESP Fit Center  282 is at   3.893328  2.366294 -0.395650
      ESP Fit Center  283 is at   3.758741  2.765734 -0.395650
      ESP Fit Center  284 is at   3.541433  3.126904 -0.395650
      ESP Fit Center  285 is at   3.251564  3.432914 -0.395650
      ESP Fit Center  286 is at   2.902689  3.669457 -0.395650
      ESP Fit Center  287 is at   2.511121  3.825472 -0.395650
      ESP Fit Center  288 is at   2.095169  3.893664 -0.395650
      ESP Fit Center  289 is at   1.674282  3.870844 -0.395650
      ESP Fit Center  290 is at   1.268142  3.758080 -0.395650
      ESP Fit Center  291 is at   0.895737  3.560644 -0.395650
      ESP Fit Center  292 is at   0.574482  3.287767 -0.395650
      ESP Fit Center  293 is at   3.853709  1.947260 -0.796447
      ESP Fit Center  294 is at   3.806973  2.362055 -0.796447
      ESP Fit Center  295 is at   3.669108  2.756050 -0.796447
      ESP Fit Center  296 is at   3.447027  3.109489 -0.796447
      ESP Fit Center  297 is at   3.151867  3.404649 -0.796447
      ESP Fit Center  298 is at   2.798428  3.626730 -0.796447
      ESP Fit Center  299 is at   2.404433  3.764595 -0.796447
      ESP Fit Center  300 is at   1.989638  3.811331 -0.796447
      ESP Fit Center  301 is at   1.574843  3.764595 -0.796447
      ESP Fit Center  302 is at   1.180848  3.626730 -0.796447
      ESP Fit Center  303 is at   0.827409  3.404649 -0.796447
      ESP Fit Center  304 is at   0.532249  3.109489 -0.796447
      ESP Fit Center  305 is at   3.806973  1.532465 -0.796447
      ESP Fit Center  306 is at   3.687048  1.947260 -1.170774
      ESP Fit Center  307 is at   3.633721  2.369389 -1.170774
      ESP Fit Center  308 is at   3.477090  2.764994 -1.170774
      ESP Fit Center  309 is at   3.226997  3.109217 -1.170774
      ESP Fit Center  310 is at   2.899156  3.380431 -1.170774
      ESP Fit Center  311 is at   2.514167  3.561593 -1.170774
      ESP Fit Center  312 is at   2.096219  3.641320 -1.170774
      ESP Fit Center  313 is at   1.671575  3.614604 -1.170774
      ESP Fit Center  314 is at   1.266916  3.483122 -1.170774
      ESP Fit Center  315 is at   0.907668  3.255137 -1.170774
      ESP Fit Center  316 is at   0.616405  2.944973 -1.170774
      ESP Fit Center  317 is at   3.633721  1.525131 -1.170774
      ESP Fit Center  318 is at   3.446202  1.947260 -1.502270
      ESP Fit Center  319 is at   3.387201  2.357622 -1.502270
      ESP Fit Center  320 is at   3.214978  2.734738 -1.502270
      ESP Fit Center  321 is at   2.943485  3.048058 -1.502270
      ESP Fit Center  322 is at   2.594717  3.272197 -1.502270
      ESP Fit Center  323 is at   2.196929  3.388998 -1.502270
      ESP Fit Center  324 is at   1.782347  3.388998 -1.502270
      ESP Fit Center  325 is at   1.384560  3.272197 -1.502270
      ESP Fit Center  326 is at   1.035792  3.048058 -1.502270
      ESP Fit Center  327 is at   0.764299  2.734738 -1.502270
      ESP Fit Center  328 is at   0.592075  2.357622 -1.502270
      ESP Fit Center  329 is at   3.387201  1.536899 -1.502270
      ESP Fit Center  330 is at   3.141697  1.947260 -1.776447
      ESP Fit Center  331 is at   3.063901  2.363432 -1.776447
      ESP Fit Center  332 is at   2.841020  2.723397 -1.776447
      ESP Fit Center  333 is at   2.503155  2.978541 -1.776447
      ESP Fit Center  334 is at   2.095937  3.094405 -1.776447
      ESP Fit Center  335 is at   1.674362  3.055340 -1.776447
      ESP Fit Center  336 is at   1.295367  2.866623 -1.776447
      ESP Fit Center  337 is at   1.010138  2.553741 -1.776447
      ESP Fit Center  338 is at   0.857195  2.158950 -1.776447
      ESP Fit Center  339 is at   0.857195  1.735570 -1.776447
      ESP Fit Center  340 is at   2.841020  1.171123 -1.776447
      ESP Fit Center  341 is at   3.063901  1.531088 -1.776447
      ESP Fit Center  342 is at   2.786842  1.947260 -1.981323
[...]
 5924 Fit       0.007193
 5925 Fit       0.006127
 5926 Fit       0.006665
 5927 Fit       0.007088
 5928 Fit       0.007524
 5929 Fit       0.004043
 5930 Fit       0.005291
 5931 Fit       0.006091
 5932 Fit       0.006654
 5933 Fit       0.007119
 5934 Fit       0.007600
 5935 Fit       0.002572
 5936 Fit       0.004271
 5937 Fit       0.005387
 5938 Fit       0.006147
 5939 Fit       0.006700
 5940 Fit       0.007158
 5941 Fit       0.007620
 5942 Fit       0.008191
 5943 Fit       0.001946
 5944 Fit       0.003799
 5945 Fit       0.005060
 5946 Fit       0.005929
 5947 Fit       0.006548
 5948 Fit       0.007022
 5949 Fit       0.007444
 5950 Fit       0.007897
 5951 Fit       0.008477
 5952 Fit       0.000845
 5953 Fit       0.002942
 5954 Fit       0.004443
 5955 Fit       0.005504
 5956 Fit       0.006252
 5957 Fit       0.006793
 5958 Fit       0.007211
 5959 Fit       0.007581
 5960 Fit       0.007965
 5961 Fit      -0.001660
 5962 Fit       0.000475
 5963 Fit       0.002388
 5964 Fit       0.003924
 5965 Fit       0.005088
 5966 Fit       0.005940
 5967 Fit       0.006555
 5968 Fit       0.007002
 5969 Fit       0.007344
 5970 Fit       0.007631
 5971 Fit       0.007880
 5972 Fit       0.000643
 5973 Fit       0.001375
 5974 Fit       0.002638
 5975 Fit       0.003934
 5976 Fit       0.005041
 5977 Fit       0.005900
 5978 Fit       0.006531
 5979 Fit       0.006981
 5980 Fit       0.007302
 5981 Fit       0.007535
 5982 Fit       0.007682
 5983 Fit       0.004290
 5984 Fit       0.003405
 5985 Fit       0.003555
 5986 Fit       0.004270
 5987 Fit       0.005132
 5988 Fit       0.005911
 5989 Fit       0.006523
 5990 Fit       0.006966
 5991 Fit       0.007274
 5992 Fit       0.007483
 5993 Fit       0.005630
 5994 Fit       0.005082
 5995 Fit       0.005269
 5996 Fit       0.005811
 5997 Fit       0.006396
 5998 Fit       0.006876
 5999 Fit       0.007226
 6000 Fit       0.007485
 6001 Fit       0.008264
 6002 Fit       0.006965
 6003 Fit       0.006259
 6004 Fit       0.006302
 6005 Fit       0.006711
 6006 Fit       0.007144
 6007 Fit       0.007521
 6008 Fit       0.007978
 6009 Fit       0.008249
 6010 Fit       0.008602
 6011 Fit       0.007920
 6012 Fit       0.007093
 6013 Fit       0.007127
 6014 Fit       0.007598
 6015 Fit       0.007721
 6016 Fit       0.011708
 6017 Fit       0.012646
 6018 Fit       0.012721
 6019 Fit       0.011449
 6020 Fit       0.010780
 6021 Fit       0.011181
 6022 Fit       0.011816
 6023 Fit       0.013678
 6024 Fit       0.014443
 6025 Fit       0.009597
 6026 Fit       0.009847
 6027 Fit       0.010604
 6028 Fit       0.010999
 6029 Fit       0.011284
 6030 Fit       0.011793
 6031 Fit       0.012634
 6032 Fit       0.011040
 6033 Fit       0.011021
 6034 Fit       0.011205
 6035 Fit       0.011663
 6036 Fit       0.012433
 6037 Fit       0.013552
 6038 Fit       0.011340
 6039 Fit       0.010930
 6040 Fit       0.010798
 6041 Fit       0.010947
 6042 Fit       0.011362
 6043 Fit       0.012055
 6044 Fit       0.013091
 6045 Fit       0.011261
 6046 Fit       0.010651
 6047 Fit       0.010451
 6048 Fit       0.010565
 6049 Fit       0.010940
 6050 Fit       0.011558
 6051 Fit       0.012454
 6052 Fit       0.010797
 6053 Fit       0.010187
 6054 Fit       0.010012
 6055 Fit       0.010143
 6056 Fit       0.010518
 6057 Fit       0.011108
 6058 Fit       0.011907
 6059 Fit       0.012965
 6060 Fit       0.009813
 6061 Fit       0.009516
 6062 Fit       0.009580
 6063 Fit       0.009918
 6064 Fit       0.010488
 6065 Fit       0.011265
 6066 Fit       0.009295
 6067 Fit       0.008958
 6068 Fit       0.008994
 6069 Fit       0.009315
 6070 Fit       0.009889
 6071 Fit       0.010705
 6072 Fit      -0.004408
 6073 Fit      -0.002242
 6074 Fit      -0.000399
 6075 Fit       0.000980
 6076 Fit       0.001797
 6077 Fit      -0.009211
 6078 Fit      -0.005990
 6079 Fit      -0.003196
 6080 Fit      -0.000905
 6081 Fit       0.000874
 6082 Fit       0.002115
 6083 Fit       0.002728
 6084 Fit      -0.011386
 6085 Fit      -0.007352
 6086 Fit      -0.004055
 6087 Fit      -0.001386
 6088 Fit       0.000756
 6089 Fit       0.002428
 6090 Fit      -0.016651
 6091 Fit      -0.011018
 6092 Fit      -0.006630
 6093 Fit      -0.003157
 6094 Fit      -0.000354
 6095 Fit       0.001961
 6096 Fit      -0.015465
 6097 Fit      -0.009811
 6098 Fit      -0.005470
 6099 Fit      -0.002014
 6100 Fit       0.000860
 6101 Fit      -0.012161
 6102 Fit      -0.007110
 6103 Fit      -0.003147
 6104 Fit       0.000142
 6105 Fit      -0.018604
 6106 Fit      -0.011623
 6107 Fit      -0.006427
 6108 Fit      -0.002326
 6109 Fit       0.001171
 6110 Fit      -0.015670
 6111 Fit      -0.009217
 6112 Fit      -0.004322
 6113 Fit      -0.000329
 6114 Fit      -0.012234
 6115 Fit      -0.006591
 6116 Fit      -0.002161
 6117 Fit      -0.011927
 6118 Fit      -0.006175
 6119 Fit      -0.001687
 6120 Fit      -0.010815
 6121 Fit      -0.005353
 6122 Fit      -0.001064
 6123 Fit      -0.007600
 6124 Fit      -0.002852
 6125 Fit      -0.002864
 6126 Fit       0.007356
 6127 Fit       0.008040
 6128 Fit       0.006710
 6129 Fit       0.006123
 6130 Fit       0.006520
 6131 Fit       0.007760
 6132 Fit       0.008661
 6133 Fit       0.008665
 6134 Fit       0.007090
 6135 Fit       0.005794
 6136 Fit       0.005130
 6137 Fit       0.004953
 6138 Fit       0.005032
 6139 Fit       0.005433
 6140 Fit       0.006435
 6141 Fit       0.007945
 6142 Fit       0.009347
 6143 Fit       0.010066
 6144 Fit       0.009823
 6145 Fit       0.009337
 6146 Fit       0.007494
 6147 Fit       0.005772
 6148 Fit       0.004568
 6149 Fit       0.003981
 6150 Fit       0.003836
 6151 Fit       0.003861
 6152 Fit       0.003860
 6153 Fit       0.003822
 6154 Fit       0.003976
 6155 Fit       0.004683
 6156 Fit       0.006104
 6157 Fit       0.007939
 6158 Fit       0.009668
 6159 Fit       0.010940
 6160 Fit       0.011623
 6161 Fit       0.011617
 6162 Fit       0.010825
 6163 Fit       0.010190
 6164 Fit       0.007904
 6165 Fit       0.005652
 6166 Fit       0.003881
 6167 Fit       0.002841
 6168 Fit       0.002482
 6169 Fit       0.002558
 6170 Fit       0.002779
 6171 Fit       0.002910
 6172 Fit       0.002808
 6173 Fit       0.002467
 6174 Fit       0.002071
 6175 Fit       0.002036
 6176 Fit       0.002838
 6177 Fit       0.004623
 6178 Fit       0.006987
 6179 Fit       0.009299
 6180 Fit       0.011152
 6181 Fit       0.012469
 6182 Fit       0.013315
 6183 Fit       0.013656
 6184 Fit       0.012086
 6185 Fit       0.002908
 6186 Fit       0.001292
 6187 Fit       0.000653
 6188 Fit       0.000746
 6189 Fit       0.001221
 6190 Fit       0.001756
 6191 Fit       0.002107
 6192 Fit       0.002106
 6193 Fit       0.001657
 6194 Fit       0.000768
 6195 Fit      -0.000346
 6196 Fit       0.007599
 6197 Fit       0.010465
 6198 Fit       0.013999
 6199 Fit       0.001386
 6200 Fit       0.000364
 6201 Fit      -0.001382
 6202 Fit       0.001812
 6203 Fit       0.002715
 6204 Fit       0.003053
 6205 Fit       0.000630
 6206 Fit       0.002136
 6207 Fit       0.003152
 6208 Fit       0.003736
 6209 Fit       0.003976
 6210 Fit       0.003983
 6211 Fit       0.001750
 6212 Fit       0.003052
 6213 Fit       0.003935
 6214 Fit       0.004467
 6215 Fit       0.004714
 6216 Fit       0.004747
 6217 Fit       0.004645
 6218 Fit       0.004508
 6219 Fit       0.002007
 6220 Fit       0.003380
 6221 Fit       0.004330
 6222 Fit       0.004940
 6223 Fit       0.005275
 6224 Fit       0.005390
 6225 Fit       0.005333
 6226 Fit       0.005161
 6227 Fit       0.004944
 6228 Fit       0.004781
 6229 Fit       0.002528
 6230 Fit       0.003892
 6231 Fit       0.004820
 6232 Fit       0.005417
 6233 Fit       0.005765
 6234 Fit       0.005916
 6235 Fit       0.005904
 6236 Fit       0.005760
 6237 Fit       0.005519
 6238 Fit       0.005225
 6239 Fit       0.004945
 6240 Fit       0.004772
 6241 Fit       0.005385
 6242 Fit       0.005957
 6243 Fit       0.006264
 6244 Fit       0.006391
 6245 Fit       0.006377
 6246 Fit       0.006240
 6247 Fit       0.005995
 6248 Fit       0.005664
 6249 Fit       0.005279
 6250 Fit       0.004892
 6251 Fit       0.004576
 6252 Fit       0.007018
 6253 Fit       0.006966
 6254 Fit       0.006842
 6255 Fit       0.006652
 6256 Fit       0.006387
 6257 Fit       0.006044
 6258 Fit       0.005630
 6259 Fit       0.005162
 6260 Fit       0.004675
 6261 Fit       0.004223
 6262 Fit       0.007740
 6263 Fit       0.007303
 6264 Fit       0.006919
 6265 Fit       0.006534
 6266 Fit       0.006111
 6267 Fit       0.005634
 6268 Fit       0.005100
 6269 Fit       0.004523
 6270 Fit       0.003932
 6271 Fit       0.003374
 6272 Fit       0.007208
 6273 Fit       0.006603
 6274 Fit       0.006041
 6275 Fit       0.005459
 6276 Fit       0.004830
 6277 Fit       0.004146
 6278 Fit       0.003419
 6279 Fit       0.002680
 6280 Fit       0.007112
 6281 Fit       0.006244
 6282 Fit       0.005502
 6283 Fit       0.004770
 6284 Fit       0.003993
 6285 Fit       0.003152
 6286 Fit       0.002248
 6287 Fit       0.005598
 6288 Fit       0.004692
 6289 Fit       0.003816
 6290 Fit       0.002891
 6291 Fit       0.001881
 6292 Fit       0.004630
 6293 Fit       0.003539
 6294 Fit       0.002467
 6295 Fit       0.001304
 6296 Fit       0.002020
 6297 Fit       0.000746
 6298 Fit       0.005245
 6299 Fit       0.004841
 6300 Fit       0.005782
 6301 Fit       0.006800
 6302 Fit       0.005481
 6303 Fit       0.006519
 6304 Fit       0.007261
 6305 Fit       0.007481
 6306 Fit       0.008775
 6307 Fit       0.007292
 6308 Fit       0.004987
 6309 Fit       0.005953
 6310 Fit       0.006876
 6311 Fit       0.007737
 6312 Fit       0.008494
 6313 Fit       0.009069
 6314 Fit       0.009269
 6315 Fit       0.005969
 6316 Fit       0.006795
 6317 Fit       0.007640
 6318 Fit       0.008485
 6319 Fit       0.009326
 6320 Fit       0.010163
 6321 Fit       0.010939
 6322 Fit       0.005638
 6323 Fit       0.006327
 6324 Fit       0.007103
 6325 Fit       0.007925
 6326 Fit       0.008778
 6327 Fit       0.009672
 6328 Fit       0.010659
 6329 Fit       0.005783
 6330 Fit       0.006431
 6331 Fit       0.007175
 6332 Fit       0.007971
 6333 Fit       0.008803
 6334 Fit       0.009687
 6335 Fit       0.010685
 6336 Fit       0.005279
 6337 Fit       0.005855
 6338 Fit       0.006570
 6339 Fit       0.007361
 6340 Fit       0.008191
 6341 Fit       0.009052
 6342 Fit       0.009979
 6343 Fit       0.005065
 6344 Fit       0.005748
 6345 Fit       0.006528
 6346 Fit       0.007352
 6347 Fit       0.008192
 6348 Fit       0.009042
 6349 Fit       0.009940
 6350 Fit       0.004462
 6351 Fit       0.005232
 6352 Fit       0.006073
 6353 Fit       0.006934
 6354 Fit       0.007782
 6355 Fit       0.008592
 6356 Fit       0.003985
 6357 Fit       0.004924
 6358 Fit       0.005884
 6359 Fit       0.006816
 6360 Fit       0.007660
 6361 Fit       0.003174
 6362 Fit       0.004305
 6363 Fit       0.005426
 6364 Fit       0.006471
 6365 Fit       0.003701
 6366 Fit       0.003679
 6367 Fit       0.002857
 6368 Fit       0.002522
 6369 Fit       0.002463
 6370 Fit       0.002534
 6371 Fit       0.002652
 6372 Fit       0.002779
 6373 Fit       0.002901
 6374 Fit       0.003013
 6375 Fit       0.003108
 6376 Fit       0.003177
 6377 Fit       0.003203
 6378 Fit       0.003160
 6379 Fit       0.003027
 6380 Fit       0.002798
 6381 Fit       0.002485
 6382 Fit       0.002127
 6383 Fit       0.001800
 6384 Fit       0.001639
 6385 Fit       0.001845
 6386 Fit       0.002619
 6387 Fit       0.004045
 6388 Fit       0.005035
 6389 Fit       0.003947
 6390 Fit       0.003357
 6391 Fit       0.003120
 6392 Fit       0.003085
 6393 Fit       0.003144
 6394 Fit       0.003239
 6395 Fit       0.003336
 6396 Fit       0.003421
 6397 Fit       0.003482
 6398 Fit       0.003505
 6399 Fit       0.003478
 6400 Fit       0.003391
 6401 Fit       0.003252
 6402 Fit       0.003089
 6403 Fit       0.002966
 6404 Fit       0.002989
 6405 Fit       0.003300
 6406 Fit       0.004031
 6407 Fit       0.005208
 6408 Fit       0.006697
 6409 Fit       0.007403
 6410 Fit       0.006175
 6411 Fit       0.005061
 6412 Fit       0.004296
 6413 Fit       0.003884
 6414 Fit       0.003722
 6415 Fit       0.003701
 6416 Fit       0.003745
 6417 Fit       0.003806
 6418 Fit       0.003860
 6419 Fit       0.003891
 6420 Fit       0.003889
 6421 Fit       0.003856
 6422 Fit       0.003812
 6423 Fit       0.003805
 6424 Fit       0.003916
 6425 Fit       0.004251
 6426 Fit       0.004895
 6427 Fit       0.005837
 6428 Fit       0.006929
 6429 Fit       0.007910
 6430 Fit       0.008460
 6431 Fit       0.006742
 6432 Fit       0.005880
 6433 Fit       0.005093
 6434 Fit       0.004580
 6435 Fit       0.004330
 6436 Fit       0.004250
 6437 Fit       0.004254
 6438 Fit       0.004284
 6439 Fit       0.004314
 6440 Fit       0.004337
 6441 Fit       0.004374
 6442 Fit       0.004479
 6443 Fit       0.004738
 6444 Fit       0.005229
 6445 Fit       0.005946
 6446 Fit       0.006725
 6447 Fit       0.007272
 6448 Fit       0.007298
 6449 Fit       0.006291
 6450 Fit       0.005642
 6451 Fit       0.005090
 6452 Fit       0.004804
 6453 Fit       0.004715
 6454 Fit       0.004724
 6455 Fit       0.004785
 6456 Fit       0.004927
 6457 Fit       0.005237
 6458 Fit       0.005764
 6459 Fit       0.006345
 6460 Fit       0.006603
 6461 Fit       0.005924
 6462 Fit       0.005427
 6463 Fit       0.005157
 6464 Fit       0.005197
 6465 Fit       0.005512
 6466 Fit       0.005965
 6467 Fit       0.005572
 6468 Fit       0.002299
 6469 Fit       0.003029
 6470 Fit       0.002124
 6471 Fit       0.002957
 6472 Fit       0.003777
 6473 Fit       0.004593
 6474 Fit       0.002872
 6475 Fit       0.003624
 6476 Fit       0.004390
 6477 Fit       0.005173
 6478 Fit       0.006071
 6479 Fit       0.002962
 6480 Fit       0.003636
 6481 Fit       0.004346
 6482 Fit       0.005055
 6483 Fit       0.005776
 6484 Fit       0.006594
 6485 Fit       0.002982
 6486 Fit       0.003563
 6487 Fit       0.004203
 6488 Fit       0.004846
 6489 Fit       0.005470
 6490 Fit       0.006085
 6491 Fit       0.006748
 6492 Fit       0.007588
 6493 Fit       0.003268
 6494 Fit       0.003846
 6495 Fit       0.004459
 6496 Fit       0.005057
 6497 Fit       0.005619
 6498 Fit       0.006145
 6499 Fit       0.006669
 6500 Fit       0.007261
 6501 Fit       0.003463
 6502 Fit       0.004015
 6503 Fit       0.004580
 6504 Fit       0.005115
 6505 Fit       0.005599
 6506 Fit       0.006025
 6507 Fit       0.006404
 6508 Fit       0.006763
 6509 Fit       0.007153
 6510 Fit       0.003255
 6511 Fit       0.003748
 6512 Fit       0.004270
 6513 Fit       0.004769
 6514 Fit       0.005216
 6515 Fit       0.005592
 6516 Fit       0.005889
 6517 Fit       0.006105
 6518 Fit       0.006242
 6519 Fit       0.006292
 6520 Fit       0.003319
 6521 Fit       0.003797
 6522 Fit       0.004278
 6523 Fit       0.004717
 6524 Fit       0.005083
 6525 Fit       0.005353
 6526 Fit       0.005512
 6527 Fit       0.005542
 6528 Fit       0.005415
 6529 Fit       0.005064
 6530 Fit       0.004339
 6531 Fit       0.003486
 6532 Fit       0.003928
 6533 Fit       0.004332
 6534 Fit       0.004655
 6535 Fit       0.004867
 6536 Fit       0.004942
 6537 Fit       0.004847
 6538 Fit       0.004537
 6539 Fit       0.003924
 6540 Fit       0.002842
 6541 Fit       0.003563
 6542 Fit       0.003911
 6543 Fit       0.004181
 6544 Fit       0.004334
 6545 Fit       0.004333
 6546 Fit       0.004142
 6547 Fit       0.003709
 6548 Fit       0.002953
 6549 Fit       0.001746
 6550 Fit       0.003460
 6551 Fit       0.003691
 6552 Fit       0.003798
 6553 Fit       0.003733
 6554 Fit       0.003446
 6555 Fit       0.002885
 6556 Fit       0.003338
 6557 Fit       0.003216
 6558 Fit       0.001512
 6559 Fit       0.000857
 6560 Fit       0.002607
 6561 Fit       0.002151
 6562 Fit       0.001543
 6563 Fit       0.003289
 6564 Fit       0.002842
 6565 Fit       0.002443
 6566 Fit       0.002006
 6567 Fit       0.001494
 6568 Fit       0.003116
 6569 Fit       0.002825
 6570 Fit       0.002533
 6571 Fit       0.002205
 6572 Fit       0.001860
 6573 Fit       0.003372
 6574 Fit       0.003100
 6575 Fit       0.002932
 6576 Fit       0.002747
 6577 Fit       0.002519
 6578 Fit       0.002280
 6579 Fit       0.003021
 6580 Fit       0.002949
 6581 Fit       0.002913
 6582 Fit       0.002828
 6583 Fit       0.002686
 6584 Fit       0.002520
 6585 Fit       0.002401
 6586 Fit       0.002569
 6587 Fit       0.002653
 6588 Fit       0.002766
 6589 Fit       0.002810
 6590 Fit       0.002769
 6591 Fit       0.002667
 6592 Fit       0.002562
 6593 Fit       0.001860
 6594 Fit       0.002151
 6595 Fit       0.002435
 6596 Fit       0.002622
 6597 Fit       0.002696
 6598 Fit       0.002679
 6599 Fit       0.002616
 6600 Fit       0.002575
 6601 Fit       0.001102
 6602 Fit       0.001621
 6603 Fit       0.002055
 6604 Fit       0.002354
 6605 Fit       0.002517
 6606 Fit       0.002572
 6607 Fit       0.002559
 6608 Fit       0.002540
 6609 Fit       0.000722
 6610 Fit       0.001371
 6611 Fit       0.001861
 6612 Fit       0.002184
 6613 Fit       0.002361
 6614 Fit       0.002432
 6615 Fit       0.002448
 6616 Fit       0.000003
 6617 Fit       0.000765
 6618 Fit       0.001383
 6619 Fit       0.001825
 6620 Fit       0.002102
 6621 Fit       0.002250
 6622 Fit       0.002320
 6623 Fit      -0.000247
 6624 Fit       0.000375
 6625 Fit       0.000989
 6626 Fit       0.001486
 6627 Fit       0.001836
 6628 Fit       0.002057
 6629 Fit       0.000385
 6630 Fit       0.000610
 6631 Fit       0.001045
 6632 Fit       0.001471
 6633 Fit       0.001801
 -----------------------------------------------------------------
 Leave Link  602 at Thu Nov  2 13:26:47 2023, MaxMem=   134217728 cpu:               0.8 elap:               0.8

 Test job not archived.
 1\1\GINC-LAC-044\FOpt\RHF\6-31G(d)\C10H16O1\RAHNAMOU\02-Nov-2023\0\\#H
 F/6-31G* SCF=tight Pop=MK iop(6/33=2) iop(6/42=6) opt\\mobley_1160109\
 \0,1\C,0.9445742566,0.7841325269,-2.5344750971\C,0.6335394507,0.008699
 561,-1.258700946\H,1.4038344094,-0.7490294058,-1.1064982258\C,-0.72066
 65002,-0.7221948372,-1.3203842559\C,-1.0485192841,-1.4633956871,-0.021
 8766564\C,-1.0708734241,-0.5047915375,1.1743872469\H,-1.8186760937,0.2
 586164515,0.9582626325\C,0.2930076706,0.2151415505,1.282440569\C,0.672
 4657309,0.8933966421,-0.0214333485\O,0.9758724938,2.0468146373,-0.0617
 959847\C,-1.4622528758,-1.1331621101,2.5042226306\C,-1.3789367387,-2.4
 281103955,2.7564166348\C,-1.972296791,-0.1680374455,3.5494795917\H,0.2
 035602165,1.5561767416,-2.7091732728\H,1.9115017763,1.2673856959,-2.47
 27641226\H,0.9487089501,0.1157127733,-3.3899848617\H,-1.505216191,0.00
 08745516,-1.5362536647\H,-0.7078944869,-1.420528971,-2.1516493827\H,-2
 .0091825032,-1.9599073809,-0.1126318596\H,-0.3052713873,-2.2404589185,
 0.1383259935\H,0.2975295683,0.9685181538,2.0584219686\H,1.0570250822,-
 0.5209929534,1.5249978374\H,-1.658517136,-2.8268135192,3.7157846553\H,
 -1.035946153,-3.143775742,2.0327438182\H,-2.8694601137,0.3361762795,3.
 1988575973\H,-2.2122358111,-0.6786907175,4.474095316\H,-1.2426741157,0
 .6042440564,3.7741851865\\Version=ES64L-G16RevC.01\State=1-A\HF=-462.8
 546876\RMSD=7.501e-09\RMSF=3.067e-06\Dipole=-0.4028471,-1.0613874,0.02
 73743\Quadrupole=0.8627659,-4.4722086,3.6094427,-4.2476397,-0.2366699,
 2.0142542\PG=C01 [X(C10H16O1)]\\@


 EVERYBODY NEEDS BEAUTY AS WELL AS BREAD, PLACES TO PLAY IN AND PRAY IN,
 WHERE NATURE MAY HEAL AND CHEER AND GIVE STRENGTH TO BODY AND SOUL ALIKE.

                                    -- JOHN MUIR
 Job cpu time:       0 days  0 hours 21 minutes 49.5 seconds.
 Elapsed time:       0 days  0 hours 21 minutes 50.0 seconds.
 File lengths (MBytes):  RWF=    272 Int=      0 D2E=      0 Chk=     32 Scr=     32
 Normal termination of Gaussian 16 at Thu Nov  2 13:26:47 2023.
