 Entering Gaussian System, Link 0=/opt/software/Gaussian/g16-AVX2-C.01/g16/g16
 Input=mobley_1261349.com
 Output=mobley_1261349.log
 Initial command:
 /opt/software/Gaussian/g16-AVX2-C.01/g16/l1.exe "/mnt/gs21/scratch/rahnamou/Gau-28583.inp" -scrdir="/mnt/gs21/scratch/rahnamou/"
 Entering Link 1 = /opt/software/Gaussian/g16-AVX2-C.01/g16/l1.exe PID=     28603.
  
 Copyright (c) 1988-2019, Gaussian, Inc.  All Rights Reserved.
  
 This is part of the Gaussian(R) 16 program.  It is based on
 the Gaussian(R) 09 system (copyright 2009, Gaussian, Inc.),
 the Gaussian(R) 03 system (copyright 2003, Gaussian, Inc.),
 the Gaussian(R) 98 system (copyright 1998, Gaussian, Inc.),
 the Gaussian(R) 94 system (copyright 1995, Gaussian, Inc.),
 the Gaussian 92(TM) system (copyright 1992, Gaussian, Inc.),
 the Gaussian 90(TM) system (copyright 1990, Gaussian, Inc.),
 the Gaussian 88(TM) system (copyright 1988, Gaussian, Inc.),
 the Gaussian 86(TM) system (copyright 1986, Carnegie Mellon
 University), and the Gaussian 82(TM) system (copyright 1983,
 Carnegie Mellon University). Gaussian is a federally registered
 trademark of Gaussian, Inc.
  
 This software contains proprietary and confidential information,
 including trade secrets, belonging to Gaussian, Inc.
  
 This software is provided under written license and may be
 used, copied, transmitted, or stored only in accord with that
 written license.
  
 The following legend is applicable only to US Government
 contracts under FAR:
  
                    RESTRICTED RIGHTS LEGEND
  
 Use, reproduction and disclosure by the US Government is
 subject to restrictions as set forth in subparagraphs (a)
 and (c) of the Commercial Computer Software - Restricted
 Rights clause in FAR 52.227-19.
  
 Gaussian, Inc.
 340 Quinnipiac St., Bldg. 40, Wallingford CT 06492
  
  
 ---------------------------------------------------------------
 Warning -- This program may not be used in any manner that
 competes with the business of Gaussian, Inc. or will provide
 assistance to any competitor of Gaussian, Inc.  The licensee
 of this program is prohibited from giving any competitor of
 Gaussian, Inc. access to this program.  By using this program,
 the user acknowledges that Gaussian, Inc. is engaged in the
 business of creating and licensing software in the field of
 computational chemistry and represents and warrants to the
 licensee that it is not a competitor of Gaussian, Inc. and that
 it will not use this program in any manner prohibited above.
 ---------------------------------------------------------------
  

 Cite this work as:
 Gaussian 16, Revision C.01,
 M. J. Frisch, G. W. Trucks, H. B. Schlegel, G. E. Scuseria, 
 M. A. Robb, J. R. Cheeseman, G. Scalmani, V. Barone, 
 G. A. Petersson, H. Nakatsuji, X. Li, M. Caricato, A. V. Marenich, 
 J. Bloino, B. G. Janesko, R. Gomperts, B. Mennucci, H. P. Hratchian, 
 J. V. Ortiz, A. F. Izmaylov, J. L. Sonnenberg, D. Williams-Young, 
 F. Ding, F. Lipparini, F. Egidi, J. Goings, B. Peng, A. Petrone, 
 T. Henderson, D. Ranasinghe, V. G. Zakrzewski, J. Gao, N. Rega, 
 G. Zheng, W. Liang, M. Hada, M. Ehara, K. Toyota, R. Fukuda, 
 J. Hasegawa, M. Ishida, T. Nakajima, Y. Honda, O. Kitao, H. Nakai, 
 T. Vreven, K. Throssell, J. A. Montgomery, Jr., J. E. Peralta, 
 F. Ogliaro, M. J. Bearpark, J. J. Heyd, E. N. Brothers, K. N. Kudin, 
 V. N. Staroverov, T. A. Keith, R. Kobayashi, J. Normand, 
 K. Raghavachari, A. P. Rendell, J. C. Burant, S. S. Iyengar, 
 J. Tomasi, M. Cossi, J. M. Millam, M. Klene, C. Adamo, R. Cammi, 
 J. W. Ochterski, R. L. Martin, K. Morokuma, O. Farkas, 
 J. B. Foresman, and D. J. Fox, Gaussian, Inc., Wallingford CT, 2019.
 
 ******************************************
 Gaussian 16:  ES64L-G16RevC.01  3-Jul-2019
                 2-Nov-2023 
 ******************************************
 %chk=mobley_1261349.chk
 %mem=1GB
 %NProcShared=1
 Will use up to    1 processors via shared memory.
 -------------------------------------------------------
 #HF/6-31G* SCF=tight Pop=MK iop(6/33=2) iop(6/42=6) opt
 -------------------------------------------------------
 1/18=20,19=15,38=1/1,3;
 2/9=110,12=2,17=6,18=5,40=1/2;
 3/5=1,6=6,7=1,11=9,25=1,30=1,71=1/1,2,3;
 4//1;
 5/5=2,32=2,38=5/2;
 6/7=2,8=2,9=2,10=2,15=8,20=1,28=1,33=2,42=6/1,2;
 7//1,2,3,16;
 1/18=20,19=15/3(2);
 2/9=110/2;
 99//99;
 2/9=110/2;
 3/5=1,6=6,7=1,11=9,25=1,30=1,71=1/1,2,3;
 4/5=5,16=3,69=1/1;
 5/5=2,32=2,38=5/2;
 7//1,2,3,16;
 1/18=20,19=15/3(-5);
 2/9=110/2;
 6/7=2,8=2,9=2,10=2,15=8,19=2,20=1,28=1,33=2,42=6/1,2;
 99/9=1/99;
 --------------
 mobley_1261349
 --------------
 Symbolic Z-matrix:
 Charge =  0 Multiplicity = 1
 C                    -0.614    -0.125     0.899 
 C                     0.261    -0.35      2.141 
 C                     1.185     0.859     2.342 
 C                     1.108    -1.616     1.947 
 C                    -0.637    -0.519     3.375 
 H                    -1.286    -0.973     0.729 
 H                    -1.232     0.774     1.008 
 H                     0.        0.        0. 
 H                     1.823     0.728     3.223 
 H                     0.608     1.78      2.483 
 H                     1.84      1.006     1.476 
 H                     1.744    -1.803     2.82 
 H                     0.474    -2.498     1.801 
 H                     1.76     -1.525     1.072 
 H                    -0.041    -0.682     4.279 
 H                    -1.31     -1.376     3.261 
 H                    -1.256     0.371     3.539 
 

 GradGradGradGradGradGradGradGradGradGradGradGradGradGradGradGradGradGrad
 Berny optimization.
 Initialization pass.
                           ----------------------------
                           !    Initial Parameters    !
                           ! (Angstroms and Degrees)  !
 --------------------------                            --------------------------
 ! Name  Definition              Value          Derivative Info.                !
 --------------------------------------------------------------------------------
 ! R1    R(1,2)                  1.5358         estimate D2E/DX2                !
 ! R2    R(1,6)                  1.0953         estimate D2E/DX2                !
 ! R3    R(1,7)                  1.0964         estimate D2E/DX2                !
 ! R4    R(1,8)                  1.0958         estimate D2E/DX2                !
 ! R5    R(2,3)                  1.5349         estimate D2E/DX2                !
 ! R6    R(2,4)                  1.5355         estimate D2E/DX2                !
 ! R7    R(2,5)                  1.5355         estimate D2E/DX2                !
 ! R8    R(3,9)                  1.0956         estimate D2E/DX2                !
 ! R9    R(3,10)                 1.0959         estimate D2E/DX2                !
 ! R10   R(3,11)                 1.0957         estimate D2E/DX2                !
 ! R11   R(4,12)                 1.0962         estimate D2E/DX2                !
 ! R12   R(4,13)                 1.096          estimate D2E/DX2                !
 ! R13   R(4,14)                 1.095          estimate D2E/DX2                !
 ! R14   R(5,15)                 1.095          estimate D2E/DX2                !
 ! R15   R(5,16)                 1.0956         estimate D2E/DX2                !
 ! R16   R(5,17)                 1.0964         estimate D2E/DX2                !
 ! A1    A(2,1,6)              111.2013         estimate D2E/DX2                !
 ! A2    A(2,1,7)              111.1537         estimate D2E/DX2                !
 ! A3    A(2,1,8)              111.1568         estimate D2E/DX2                !
 ! A4    A(6,1,7)              107.7253         estimate D2E/DX2                !
 ! A5    A(6,1,8)              107.7439         estimate D2E/DX2                !
 ! A6    A(7,1,8)              107.6899         estimate D2E/DX2                !
 ! A7    A(1,2,3)              109.4799         estimate D2E/DX2                !
 ! A8    A(1,2,4)              109.4435         estimate D2E/DX2                !
 ! A9    A(1,2,5)              109.4407         estimate D2E/DX2                !
 ! A10   A(3,2,4)              109.506          estimate D2E/DX2                !
 ! A11   A(3,2,5)              109.4826         estimate D2E/DX2                !
 ! A12   A(4,2,5)              109.4745         estimate D2E/DX2                !
 ! A13   A(2,3,9)              111.2034         estimate D2E/DX2                !
 ! A14   A(2,3,10)             111.2142         estimate D2E/DX2                !
 ! A15   A(2,3,11)             111.2256         estimate D2E/DX2                !
 ! A16   A(9,3,10)             107.675          estimate D2E/DX2                !
 ! A17   A(9,3,11)             107.6663         estimate D2E/DX2                !
 ! A18   A(10,3,11)            107.6782         estimate D2E/DX2                !
 ! A19   A(2,4,12)             111.1047         estimate D2E/DX2                !
 ! A20   A(2,4,13)             111.1765         estimate D2E/DX2                !
 ! A21   A(2,4,14)             111.1547         estimate D2E/DX2                !
 ! A22   A(12,4,13)            107.7242         estimate D2E/DX2                !
 ! A23   A(12,4,14)            107.7646         estimate D2E/DX2                !
 ! A24   A(13,4,14)            107.7506         estimate D2E/DX2                !
 ! A25   A(2,5,15)             111.1949         estimate D2E/DX2                !
 ! A26   A(2,5,16)             111.2054         estimate D2E/DX2                !
 ! A27   A(2,5,17)             111.164          estimate D2E/DX2                !
 ! A28   A(15,5,16)            107.6864         estimate D2E/DX2                !
 ! A29   A(15,5,17)            107.7362         estimate D2E/DX2                !
 ! A30   A(16,5,17)            107.6807         estimate D2E/DX2                !
 ! D1    D(6,1,2,3)           -179.9939         estimate D2E/DX2                !
 ! D2    D(6,1,2,4)             59.9751         estimate D2E/DX2                !
 ! D3    D(6,1,2,5)            -59.9933         estimate D2E/DX2                !
 ! D4    D(7,1,2,3)            -59.9776         estimate D2E/DX2                !
 ! D5    D(7,1,2,4)            179.9913         estimate D2E/DX2                !
 ! D6    D(7,1,2,5)             60.023          estimate D2E/DX2                !
 ! D7    D(8,1,2,3)             59.9641         estimate D2E/DX2                !
 ! D8    D(8,1,2,4)            -60.0669         estimate D2E/DX2                !
 ! D9    D(8,1,2,5)            179.9647         estimate D2E/DX2                !
 ! D10   D(1,2,3,9)            179.975          estimate D2E/DX2                !
 ! D11   D(1,2,3,10)            59.9802         estimate D2E/DX2                !
 ! D12   D(1,2,3,11)           -60.0335         estimate D2E/DX2                !
 ! D13   D(4,2,3,9)            -60.0323         estimate D2E/DX2                !
 ! D14   D(4,2,3,10)           179.9729         estimate D2E/DX2                !
 ! D15   D(4,2,3,11)            59.9592         estimate D2E/DX2                !
 ! D16   D(5,2,3,9)             60.0001         estimate D2E/DX2                !
 ! D17   D(5,2,3,10)           -59.9947         estimate D2E/DX2                !
 ! D18   D(5,2,3,11)           179.9916         estimate D2E/DX2                !
 ! D19   D(1,2,4,12)          -179.9656         estimate D2E/DX2                !
 ! D20   D(1,2,4,13)           -60.0            estimate D2E/DX2                !
 ! D21   D(1,2,4,14)            60.0324         estimate D2E/DX2                !
 ! D22   D(3,2,4,12)            60.0194         estimate D2E/DX2                !
 ! D23   D(3,2,4,13)           179.985          estimate D2E/DX2                !
 ! D24   D(3,2,4,14)           -59.9826         estimate D2E/DX2                !
 ! D25   D(5,2,4,12)           -60.0179         estimate D2E/DX2                !
 ! D26   D(5,2,4,13)            59.9476         estimate D2E/DX2                !
 ! D27   D(5,2,4,14)           179.9801         estimate D2E/DX2                !
 ! D28   D(1,2,5,15)           179.9727         estimate D2E/DX2                !
 ! D29   D(1,2,5,16)            59.9751         estimate D2E/DX2                !
 ! D30   D(1,2,5,17)           -59.9946         estimate D2E/DX2                !
 ! D31   D(3,2,5,15)           -60.0284         estimate D2E/DX2                !
 ! D32   D(3,2,5,16)           179.974          estimate D2E/DX2                !
 ! D33   D(3,2,5,17)            60.0044         estimate D2E/DX2                !
 ! D34   D(4,2,5,15)            60.0233         estimate D2E/DX2                !
 ! D35   D(4,2,5,16)           -59.9743         estimate D2E/DX2                !
 ! D36   D(4,2,5,17)          -179.9439         estimate D2E/DX2                !
 --------------------------------------------------------------------------------
 Trust Radius=3.00D-01 FncErr=1.00D-07 GrdErr=1.00D-07 EigMax=2.50D+02 EigMin=1.00D-04
 Number of steps in this run=     92 maximum allowed number of steps=    102.
 GradGradGradGradGradGradGradGradGradGradGradGradGradGradGradGradGradGrad

                          Input orientation:                          
 ---------------------------------------------------------------------
 Center     Atomic      Atomic             Coordinates (Angstroms)
 Number     Number       Type             X           Y           Z
 ---------------------------------------------------------------------
      1          6           0       -0.614000   -0.125000    0.899000
      2          6           0        0.261000   -0.350000    2.141000
      3          6           0        1.185000    0.859000    2.342000
      4          6           0        1.108000   -1.616000    1.947000
      5          6           0       -0.637000   -0.519000    3.375000
      6          1           0       -1.286000   -0.973000    0.729000
      7          1           0       -1.232000    0.774000    1.008000
      8          1           0        0.000000    0.000000    0.000000
      9          1           0        1.823000    0.728000    3.223000
     10          1           0        0.608000    1.780000    2.483000
     11          1           0        1.840000    1.006000    1.476000
     12          1           0        1.744000   -1.803000    2.820000
     13          1           0        0.474000   -2.498000    1.801000
     14          1           0        1.760000   -1.525000    1.072000
     15          1           0       -0.041000   -0.682000    4.279000
     16          1           0       -1.310000   -1.376000    3.261000
     17          1           0       -1.256000    0.371000    3.539000
 ---------------------------------------------------------------------
                    Distance matrix (angstroms):
                    1          2          3          4          5
     1  C    0.000000
     2  C    1.535843   0.000000
     3  C    2.507370   1.534880   0.000000
     4  C    2.507323   1.535513   2.507505   0.000000
     5  C    2.507258   1.535487   2.507121   2.507512   0.000000
     6  H    1.095257   2.185196   3.473303   2.761921   2.761998
     7  H    1.096360   2.185432   2.762005   3.474107   2.761985
     8  H    1.095820   2.185063   2.761715   2.762233   3.473580
     9  H    3.473839   2.184640   1.095612   2.762922   2.762194
    10  H    2.762493   2.185011   1.095925   3.474207   2.762443
    11  H    2.763007   2.184995   1.095714   2.762707   3.473810
    12  H    3.473628   2.184385   2.761740   1.096172   2.761493
    13  H    2.761970   2.185148   3.473852   1.095991   2.761927
    14  H    2.761486   2.184122   2.761699   1.094993   3.472960
    15  H    3.473180   2.184599   2.762196   2.762387   1.094989
    16  H    2.761967   2.185204   3.473444   2.762412   1.095616
    17  H    2.761844   2.185300   2.762143   3.474353   1.096429
                    6          7          8          9         10
     6  H    0.000000
     7  H    1.769962   0.000000
     8  H    1.769736   1.770018   0.000000
     9  H    4.333511   3.773773   3.773731   0.000000
    10  H    3.773958   2.563837   3.115021   1.769330   0.000000
    11  H    3.774431   3.116092   2.564413   1.769062   1.769449
    12  H    3.773868   4.333688   3.774221   2.564100   3.773851
    13  H    2.563671   3.774291   3.115811   3.774780   4.334093
    14  H    3.114558   3.773799   2.563671   3.115570   3.773732
    15  H    3.773222   3.773309   4.333203   2.564709   3.115808
    16  H    2.563983   3.115220   3.774069   3.774116   3.774168
    17  H    3.115018   2.562996   3.773552   3.115694   2.564159
                   11         12         13         14         15
    11  H    0.000000
    12  H    3.115451   0.000000
    13  H    3.774864   1.770391   0.000000
    14  H    2.564289   1.770041   1.769736   0.000000
    15  H    3.774164   2.563503   3.115055   3.773473   0.000000
    16  H    4.333895   3.115080   2.563814   3.773436   1.768706
    17  H    3.774177   3.774021   3.774216   4.333262   1.769925
                   16         17
    16  H    0.000000
    17  H    1.769805   0.000000
 Stoichiometry    C5H12
 Framework group  C1[X(C5H12)]
 Deg. of freedom    45
 Full point group                 C1      NOp   1
 Largest Abelian subgroup         C1      NOp   1
 Largest concise Abelian subgroup C1      NOp   1
                         Standard orientation:                         
 ---------------------------------------------------------------------
 Center     Atomic      Atomic             Coordinates (Angstroms)
 Number     Number       Type             X           Y           Z
 ---------------------------------------------------------------------
      1          6           0       -0.167180   -0.727929    1.341559
      2          6           0        0.000202    0.000433   -0.000189
      3          6           0        1.358559    0.714501   -0.028997
      4          6           0       -1.124995    1.032119   -0.165588
      5          6           0       -0.067064   -1.018656   -1.146773
      6          1           0       -1.129495   -1.248467    1.392333
      7          1           0        0.623522   -1.473029    1.488601
      8          1           0       -0.122873   -0.025241    2.181255
      9          1           0        1.507759    1.244220   -0.976363
     10          1           0        2.183448    0.002449    0.087581
     11          1           0        1.437249    1.450106    0.779262
     12          1           0       -1.031846    1.568649   -1.116931
     13          1           0       -2.109337    0.550459   -0.149156
     14          1           0       -1.102715    1.773684    0.639766
     15          1           0        0.048887   -0.528750   -2.119167
     16          1           0       -1.027278   -1.546228   -1.152249
     17          1           0        0.725543   -1.770660   -1.055009
 ---------------------------------------------------------------------
 Rotational constants (GHZ):           4.4361960           4.4357444           4.4354973
 Standard basis: 6-31G(d) (6D, 7F)
 There are    99 symmetry adapted cartesian basis functions of A   symmetry.
 There are    99 symmetry adapted basis functions of A   symmetry.
    99 basis functions,   188 primitive gaussians,    99 cartesian basis functions
    21 alpha electrons       21 beta electrons
       nuclear repulsion energy       198.1830733106 Hartrees.
 NAtoms=   17 NActive=   17 NUniq=   17 SFac= 1.00D+00 NAtFMM=   60 NAOKFM=F Big=F
 Integral buffers will be    131072 words long.
 Raffenetti 1 integral format.
 Two-electron integral symmetry is turned on.
 One-electron integrals computed using PRISM.
 NBasis=    99 RedAO= T EigKep=  4.09D-03  NBF=    99
 NBsUse=    99 1.00D-06 EigRej= -1.00D+00 NBFU=    99
 ExpMin= 1.61D-01 ExpMax= 3.05D+03 ExpMxC= 4.57D+02 IAcc=3 IRadAn=         5 AccDes= 0.00D+00
 Harris functional with IExCor=  205 and IRadAn=       5 diagonalized for initial guess.
 HarFok:  IExCor=  205 AccDes= 0.00D+00 IRadAn=         5 IDoV= 1 UseB2=F ITyADJ=14
 ICtDFT=  3500011 ScaDFX=  1.000000  1.000000  1.000000  1.000000
 FoFCou: FMM=F IPFlag=           0 FMFlag=      100000 FMFlg1=           0
         NFxFlg=           0 DoJE=T BraDBF=F KetDBF=T FulRan=T
         wScrn=  0.000000 ICntrl=       500 IOpCl=  0 I1Cent=   200000004 NGrid=           0
         NMat0=    1 NMatS0=      1 NMatT0=    0 NMatD0=    1 NMtDS0=    0 NMtDT0=    0
 Petite list used in FoFCou.
 Keep R1 ints in memory in canonical form, NReq=13151308.
 Requested convergence on RMS density matrix=1.00D-08 within 128 cycles.
 Requested convergence on MAX density matrix=1.00D-06.
 Requested convergence on             energy=1.00D-06.
 No special actions if energy rises.
 SCF Done:  E(RHF) =  -196.333132757     A.U. after   10 cycles
            NFock= 10  Conv=0.30D-08     -V/T= 2.0011
 SCF density gives NOpUse=  1 NOpAll=  1.

 **********************************************************************

            Population analysis using the SCF Density.

 **********************************************************************

 Orbital symmetries:
 BldTbl:  Degeneracy threshold= 1.00D-02
       Occupied  (A) (A) (A) (A) (A) (A) (A) (A) (A) (A) (A) (A)
                 (A) (A) (A) (A) (A) (A) (A) (A) (A)
       Virtual   (A) (A) (A) (A) (A) (A) (A) (A) (A) (A) (A) (A)
                 (A) (A) (A) (A) (A) (A) (A) (A) (A) (A) (A) (A)
                 (A) (A) (A) (A) (A) (A) (A) (A) (A) (A) (A) (A)
                 (A) (A) (A) (A) (A) (A) (A) (A) (A) (A) (A) (A)
                 (A) (A) (A) (A) (A) (A) (A) (A) (A) (A) (A) (A)
                 (A) (A) (A) (A) (A) (A) (A) (A) (A) (A) (A) (A)
                 (A) (A) (A) (A) (A) (A)
 The electronic state is 1-A.
 Alpha  occ. eigenvalues --  -11.23163 -11.20907 -11.20906 -11.20903 -11.20900
 Alpha  occ. eigenvalues --   -1.10105  -0.92598  -0.92593  -0.92584  -0.72962
 Alpha  occ. eigenvalues --   -0.60833  -0.60827  -0.60817  -0.55047  -0.55033
 Alpha  occ. eigenvalues --   -0.50802  -0.50792  -0.50783  -0.45138  -0.45107
 Alpha  occ. eigenvalues --   -0.45091
 Alpha virt. eigenvalues --    0.21011   0.28512   0.28520   0.28524   0.31241
 Alpha virt. eigenvalues --    0.31246   0.31251   0.33195   0.33206   0.38149
 Alpha virt. eigenvalues --    0.38678   0.38682   0.38688   0.42114   0.42126
 Alpha virt. eigenvalues --    0.42146   0.71374   0.71384   0.72487   0.72491
 Alpha virt. eigenvalues --    0.72503   0.87181   0.87192   0.87222   0.89854
 Alpha virt. eigenvalues --    1.01907   1.01916   1.01923   1.12270   1.12282
 Alpha virt. eigenvalues --    1.12295   1.15410   1.15597   1.15611   1.15629
 Alpha virt. eigenvalues --    1.20694   1.20727   1.20747   1.20946   1.22536
 Alpha virt. eigenvalues --    1.22555   1.26301   1.26311   1.26313   1.67682
 Alpha virt. eigenvalues --    1.67704   1.74713   1.74721   1.74733   1.94363
 Alpha virt. eigenvalues --    2.02689   2.02694   2.02706   2.18475   2.18517
 Alpha virt. eigenvalues --    2.18578   2.40787   2.40797   2.42320   2.42322
 Alpha virt. eigenvalues --    2.42331   2.58324   2.58585   2.58622   2.58636
 Alpha virt. eigenvalues --    2.61030   2.61060   2.61108   2.94339   2.94361
 Alpha virt. eigenvalues --    3.06975   3.06978   3.06992   4.59667   4.74211
 Alpha virt. eigenvalues --    4.74214   4.74221   5.10131
          Condensed to atoms (all electrons):
               1          2          3          4          5          6
     1  C    5.158718   0.366504  -0.073909  -0.073984  -0.073984   0.388798
     2  C    0.366504   4.984230   0.366365   0.366487   0.366485  -0.035525
     3  C   -0.073909   0.366365   5.158544  -0.073854  -0.073923   0.005130
     4  C   -0.073984   0.366487  -0.073854   5.158393  -0.073912  -0.003849
     5  C   -0.073984   0.366485  -0.073923  -0.073912   5.158613  -0.003850
     6  H    0.388798  -0.035525   0.005130  -0.003849  -0.003850   0.542602
     7  H    0.388726  -0.035590  -0.003853   0.005137  -0.003869  -0.026891
     8  H    0.388746  -0.035600  -0.003851  -0.003861   0.005139  -0.026886
     9  H    0.005139  -0.035581   0.388805  -0.003856  -0.003869  -0.000111
    10  H   -0.003869  -0.035547   0.388815   0.005132  -0.003861  -0.000073
    11  H   -0.003864  -0.035547   0.388805  -0.003858   0.005136  -0.000073
    12  H    0.005148  -0.035681  -0.003860   0.388738  -0.003870  -0.000073
    13  H   -0.003866  -0.035561   0.005131   0.388800  -0.003858   0.002338
    14  H   -0.003859  -0.035607  -0.003847   0.388808   0.005142   0.000074
    15  H    0.005141  -0.035568  -0.003852  -0.003846   0.388792  -0.000074
    16  H   -0.003866  -0.035532   0.005134  -0.003855   0.388817   0.002336
    17  H   -0.003869  -0.035593  -0.003861   0.005133   0.388759   0.000074
               7          8          9         10         11         12
     1  C    0.388726   0.388746   0.005139  -0.003869  -0.003864   0.005148
     2  C   -0.035590  -0.035600  -0.035581  -0.035547  -0.035547  -0.035681
     3  C   -0.003853  -0.003851   0.388805   0.388815   0.388805  -0.003860
     4  C    0.005137  -0.003861  -0.003856   0.005132  -0.003858   0.388738
     5  C   -0.003869   0.005139  -0.003869  -0.003861   0.005136  -0.003870
     6  H   -0.026891  -0.026886  -0.000111  -0.000073  -0.000073  -0.000073
     7  H    0.543144  -0.026919  -0.000074   0.002342   0.000074  -0.000111
     8  H   -0.026919   0.542993  -0.000074   0.000074   0.002342  -0.000074
     9  H   -0.000074  -0.000074   0.542936  -0.026945  -0.026968   0.002348
    10  H    0.002342   0.000074  -0.026945   0.542899  -0.026938  -0.000074
    11  H    0.000074   0.002342  -0.026968  -0.026938   0.542914   0.000073
    12  H   -0.000111  -0.000074   0.002348  -0.000074   0.000073   0.543105
    13  H   -0.000073   0.000074  -0.000073  -0.000111  -0.000073  -0.026880
    14  H   -0.000074   0.002344   0.000073  -0.000074   0.002343  -0.026845
    15  H   -0.000073  -0.000111   0.002342   0.000074  -0.000074   0.002348
    16  H    0.000074  -0.000073  -0.000073  -0.000073  -0.000111   0.000074
    17  H    0.002346  -0.000073   0.000074   0.002341  -0.000073  -0.000074
              13         14         15         16         17
     1  C   -0.003866  -0.003859   0.005141  -0.003866  -0.003869
     2  C   -0.035561  -0.035607  -0.035568  -0.035532  -0.035593
     3  C    0.005131  -0.003847  -0.003852   0.005134  -0.003861
     4  C    0.388800   0.388808  -0.003846  -0.003855   0.005133
     5  C   -0.003858   0.005142   0.388792   0.388817   0.388759
     6  H    0.002338   0.000074  -0.000074   0.002336   0.000074
     7  H   -0.000073  -0.000074  -0.000073   0.000074   0.002346
     8  H    0.000074   0.002344  -0.000111  -0.000073  -0.000073
     9  H   -0.000073   0.000073   0.002342  -0.000073   0.000074
    10  H   -0.000111  -0.000074   0.000074  -0.000073   0.002341
    11  H   -0.000073   0.002343  -0.000074  -0.000111  -0.000073
    12  H   -0.026880  -0.026845   0.002348   0.000074  -0.000074
    13  H    0.542850  -0.026887   0.000073   0.002339  -0.000073
    14  H   -0.026887   0.542556  -0.000074  -0.000073  -0.000111
    15  H    0.000073  -0.000074   0.542677  -0.026973  -0.026864
    16  H    0.002339  -0.000073  -0.026973   0.542889  -0.026931
    17  H   -0.000073  -0.000111  -0.026864  -0.026931   0.543113
 Mulliken charges:
               1
     1  C   -0.461850
     2  C   -0.023137
     3  C   -0.461919
     4  C   -0.461752
     5  C   -0.461887
     6  H    0.156053
     7  H    0.155684
     8  H    0.155809
     9  H    0.155909
    10  H    0.155889
    11  H    0.155892
    12  H    0.155709
    13  H    0.155850
    14  H    0.156111
    15  H    0.156061
    16  H    0.155898
    17  H    0.155682
 Sum of Mulliken charges =  -0.00000
 Mulliken charges with hydrogens summed into heavy atoms:
               1
     1  C    0.005695
     2  C   -0.023137
     3  C    0.005770
     4  C    0.005918
     5  C    0.005754
 DipInt: DoE/N= T F RetVal/Mat= T F Init=T NMatP=  1 IDeriv=0 Min/MaxMlt=  0  4
 Entering OneElI...
 OneElI was handed   134190470 working-precision words.
 Multipole integrals L=0 to 4 MinM= 0 MaxM= 0.
 Requested accuracy = 0.1000D-12
 ShPair: Thresh= 1.00D-13 NBox=     0 BxSize= 0.00D+00 RnKept= 8.19D+00
         NSMCal=                  990 NSMKep=                 990
 PrmmSu-InSpLW:  IPartL=    0 NPrtUS=    1 NPrtUL=    1 DoSpLW=F IThBeg=    0 IThEnd=    0 NThAct=    1.
 PrSmSu:  IncTry=   512 NBBP=            990 NTPThr=   100 NPartT=    1 Incr=           9 LDynOK=F GPUOK=F.
 PrsmSu:  NPrtUS=   1 ThrOK=F IAlg=2 LenDen=           0 ISkipM=0 DoSpLW=F IThBeg=    0 IThEnd=    0.
 Prism:   IPart=     0 DynPar=F LinDyn=F Incr=           9.
 PRISM was handed   134104721 working-precision words and   990 shell-pairs
 IPart=  0 NShTot=         990 NBatch=          28 AvBLen=        35.4
 PrsmSu-ThDecC:  IPartSL=    0    0 NPrtUSL=    1    1 IThBeg=    0 IThEnd=    0 CPU=   -1 GPU=   -1 NThAct=    1.
 PrSmSu:  NxtVal=             10.
 Electronic moments (au):
        -42.00000000         -0.00024585          0.00058933         -0.00013765
       -162.09476914       -162.07214550       -162.05295409          0.00452505
         -0.00063587          0.00235617        -65.97742913         -1.19148689
        -55.10807421         40.38047130       -158.76269329         14.10040733
         25.55671052        160.04428352         40.96598697        -15.20151977
      -1721.60431498      -1399.92836278      -1715.20314454        -46.61933026
        -22.42794478         86.20548025        -71.47683473         42.17403815
         32.21151273       -664.86879900       -349.12340083       -670.30121125
         39.40258341        -19.92426691        -39.48475804
 Electronic spatial extent (au):  <R**2>=            486.2199
 DipInt: DoE/N= F T RetVal/Mat= T F Init=T NMatP=  1 IDeriv=0 Min/MaxMlt=  0  4
 Nuclear    moments (au):
         42.00000000         -0.00000000          0.00000000          0.00000000
        135.56711325        135.54046182        135.52207716         -0.00000000
          0.00000000         -0.00000000         64.45429159          1.16737095
         53.81286851        -39.43962018        155.08556131        -13.76804275
        -24.97394581       -156.33129580        -40.01048830         14.84468570
       1119.62684436        792.45428344       1113.21413926         47.49222217
         22.78782199        -87.60100474         72.74044822        -42.88913540
        -32.71466969        465.75178025        144.64068012        471.28932928
        -40.06266602         20.24435821         40.18939041
 Total      moments (au):
          0.00000000         -0.00024585          0.00058933         -0.00013765
        -26.52765588        -26.53168368        -26.53087693          0.00452505
         -0.00063587          0.00235617         -1.52313754         -0.02411593
         -1.29520571          0.94085112         -3.67713198          0.33236459
          0.58276471          3.71298772          0.95549867         -0.35683407
       -601.97747062       -607.47407933       -601.98900529          0.87289191
          0.35987721         -1.39552449          1.26361349         -0.71509725
         -0.50315696       -199.11701875       -204.48272070       -199.01188197
         -0.66008260          0.32009130          0.70463237
 Traceless Quadrup. (au):
          0.00241628         -0.00161152         -0.00080476          0.00452505
         -0.00063587          0.00235617
 Charge=              0.0000 electrons
 Dipole moment (field-independent basis, Debye):
    X=             -0.0006    Y=              0.0015    Z=             -0.0003  Tot=              0.0017
 Quadrupole moment (field-independent basis, Debye-Ang):
   XX=            -35.6806   YY=            -35.6860   ZZ=            -35.6849
   XY=              0.0061   XZ=             -0.0009   YZ=              0.0032
 Traceless Quadrupole moment (field-independent basis, Debye-Ang):
   XX=              0.0032   YY=             -0.0022   ZZ=             -0.0011
   XY=              0.0061   XZ=             -0.0009   YZ=              0.0032
 Octapole moment (field-independent basis, Debye-Ang**2):
  XXX=             -1.0841  YYY=             -0.0172  ZZZ=             -0.9219  XYY=              0.6697
  XXY=             -2.6172  XXZ=              0.2366  XZZ=              0.4148  YZZ=              2.6428
  YYZ=              0.6801  XYZ=             -0.2540
 Hexadecapole moment (field-independent basis, Debye-Ang**3):
 XXXX=           -226.7336 YYYY=           -228.8039 ZZZZ=           -226.7379 XXXY=              0.3288
 XXXZ=              0.1355 YYYX=             -0.5256 YYYZ=              0.4759 ZZZX=             -0.2693
 ZZZY=             -0.1895 XXYY=            -74.9970 XXZZ=            -77.0180 YYZZ=            -74.9574
 XXYZ=             -0.2486 YYXZ=              0.1206 ZZXY=              0.2654
 N-N= 1.981830733106D+02 E-N=-8.521902656097D+02  KE= 1.961156692686D+02
 Entering OneElI...
 OneElI was handed   134194879 working-precision words.
 Calculate electrostatic properties
    NBasis =    99  MinDer = 0  MaxDer = 0
    NGrid  =    17  NMatD  =   1
 Requested accuracy = 0.1000D-12
 ShPair: Thresh= 1.00D-13 NBox=     0 BxSize= 0.00D+00 RnKept= 8.19D+00
         NSMCal=                  990 NSMKep=                 984
 PrmmSu-InSpLW:  IPartL=    0 NPrtUS=    1 NPrtUL=    1 DoSpLW=F IThBeg=    0 IThEnd=    0 NThAct=    1.
 PrSmSu:  IncTry=   512 NBBP=          16728 NTPThr=   100 NPartT=    1 Incr=         167 LDynOK=F GPUOK=F.
 PrsmSu:  NPrtUS=   1 ThrOK=F IAlg=2 LenDen=           0 ISkipM=0 DoSpLW=F IThBeg=    0 IThEnd=    0.
 Prism:   IPart=     0 DynPar=F LinDyn=F Incr=         167.
 PRISM was handed   134113536 working-precision words and   984 shell-pairs
 IPart=  0 NShTot=       16728 NBatch=         984 AvBLen=        17.0
 PrsmSu-ThDecC:  IPartSL=    0    0 NPrtUSL=    1    1 IThBeg=    0 IThEnd=    0 CPU=   -1 GPU=   -1 NThAct=    1.
 PrSmSu:  NxtVal=            168.
 --------------------------------------------------------
       Center         ----      EFG at Nuclei      ----
                      3XX-RR        3YY-RR        3ZZ-RR
 --------------------------------------------------------
     1   Atom        0.002143      0.000466     -0.002609
     2   Atom        0.000314      0.000010     -0.000325
     3   Atom       -0.002599      0.000634      0.001966
     4   Atom       -0.001532     -0.000450      0.001983
     5   Atom        0.001584     -0.000918     -0.000665
     6   Atom       -0.195967      0.050855      0.145112
     7   Atom       -0.083085     -0.054772      0.137857
     8   Atom        0.151667     -0.038534     -0.113133
     9   Atom        0.138033      0.047284     -0.185318
    10   Atom       -0.103934     -0.043430      0.147363
    11   Atom        0.143403     -0.049897     -0.093505
    12   Atom        0.143188      0.043244     -0.186431
    13   Atom       -0.209996      0.057824      0.152172
    14   Atom        0.147725     -0.054569     -0.093156
    15   Atom        0.148121      0.055044     -0.203165
    16   Atom       -0.194328      0.046957      0.147372
    17   Atom       -0.083605     -0.059250      0.142856
 --------------------------------------------------------
                        XY            XZ            YZ
 --------------------------------------------------------
     1   Atom        0.000296      0.000469      0.002548
     2   Atom        0.000090      0.000047      0.000108
     3   Atom       -0.002162      0.000054     -0.000004
     4   Atom        0.002830     -0.000408      0.001133
     5   Atom        0.000349     -0.000359     -0.003243
     6   Atom       -0.187309      0.015344      0.011708
     7   Atom        0.218867     -0.039451      0.041643
     8   Atom       -0.012659     -0.013303     -0.216968
     9   Atom       -0.031205      0.049390      0.187046
    10   Atom        0.215656     -0.035578      0.031621
    11   Atom       -0.022484     -0.020350     -0.222084
    12   Atom       -0.015544      0.035682      0.188955
    13   Atom       -0.174847      0.005770      0.003968
    14   Atom       -0.003991     -0.010343     -0.223190
    15   Atom       -0.022278      0.042192      0.176889
    16   Atom       -0.188020      0.001155     -0.003970
    17   Atom        0.220613     -0.030369      0.023405
 --------------------------------------------------------


 ---------------------------------------------------------------------------------
              Nuclear Quadrupole Coupling Constant in Principal Axis System
 ---------------------------------------------------------------------------------

       Atom             a.u.   MegaHertz   Gauss  10(-4) cm-1        Axes


 ---------------------------------------------------------------------------------

 No NMR shielding tensors so no spin-rotation constants.
 Leave Link  601 at Thu Nov  2 13:05:29 2023, MaxMem=   134217728 cpu:               0.1 elap:               0.1
 FitSet:  NAtFit=    17 NAtPot=    17 NAtFrz=     0 MDM=    21 TotChg=   0.00000
 Merz-Kollman atomic radii used.
 Atom Element Radius
    1     6    1.50
    2     6    1.50
    3     6    1.50
    4     6    1.50
    5     6    1.50
    6     1    1.20
    7     1    1.20
    8     1    1.20
    9     1    1.20
   10     1    1.20
   11     1    1.20
   12     1    1.20
   13     1    1.20
   14     1    1.20
   15     1    1.20
   16     1    1.20
   17     1    1.20
 Generate VDW surfaces: Layer= 4 Dens= 6 Start= 1.400 Inc= 0.200

 **********************************************************************

            Electrostatic Properties Using The SCF Density.

 **********************************************************************

       Atomic Center    1 is at  -0.167180 -0.727929  1.341559
       Atomic Center    2 is at   0.000202  0.000433 -0.000189
       Atomic Center    3 is at   1.358559  0.714501 -0.028997
       Atomic Center    4 is at  -1.124995  1.032119 -0.165588
       Atomic Center    5 is at  -0.067064 -1.018656 -1.146773
       Atomic Center    6 is at  -1.129495 -1.248467  1.392333
       Atomic Center    7 is at   0.623522 -1.473029  1.488601
       Atomic Center    8 is at  -0.122873 -0.025241  2.181255
       Atomic Center    9 is at   1.507759  1.244220 -0.976363
       Atomic Center   10 is at   2.183448  0.002449  0.087581
       Atomic Center   11 is at   1.437249  1.450106  0.779262
       Atomic Center   12 is at  -1.031846  1.568649 -1.116931
       Atomic Center   13 is at  -2.109337  0.550459 -0.149156
       Atomic Center   14 is at  -1.102715  1.773684  0.639766
       Atomic Center   15 is at   0.048887 -0.528750 -2.119167
       Atomic Center   16 is at  -1.027278 -1.546228 -1.152249
       Atomic Center   17 is at   0.725543 -1.770660 -1.055009
      ESP Fit Center   18 is at  -0.863148 -1.129746  3.281706
      ESP Fit Center   19 is at  -0.568998 -1.423897  3.281706
      ESP Fit Center   20 is at  -0.167180 -1.531564  3.281706
      ESP Fit Center   21 is at   0.234638 -1.423897  3.281706
      ESP Fit Center   22 is at   0.528789 -1.129746  3.281706
      ESP Fit Center   23 is at  -1.314012 -0.942309  3.087645
      ESP Fit Center   24 is at  -1.159126 -1.342116  3.087645
      ESP Fit Center   25 is at  -0.870272 -1.658974  3.087645
      ESP Fit Center   26 is at  -0.486462 -1.850088  3.087645
      ESP Fit Center   27 is at  -0.059531 -1.889649  3.087645
      ESP Fit Center   28 is at   1.317744 -0.727929  2.826483
      ESP Fit Center   29 is at  -0.784040 -2.078663  2.826483
      ESP Fit Center   30 is at  -0.378507 -2.197739  2.826483
      ESP Fit Center   31 is at   1.528168 -0.310063  2.508256
      ESP Fit Center   32 is at  -0.377647 -2.461284  2.508256
      ESP Fit Center   33 is at   1.727608 -0.310855  2.145194
      ESP Fit Center   34 is at   1.593650  0.086718  2.145194
      ESP Fit Center   35 is at  -1.829609  0.272321  2.145194
      ESP Fit Center   36 is at  -0.481061 -2.642517  2.145194
      ESP Fit Center   37 is at   1.850308 -0.313324  1.751249
      ESP Fit Center   38 is at  -1.968027  0.271623  1.751249
      ESP Fit Center   39 is at  -0.271499 -2.784934  0.931869
      ESP Fit Center   40 is at  -0.481061 -2.642517  0.537924
      ESP Fit Center   41 is at   1.760377  0.018532  1.911150
      ESP Fit Center   42 is at   2.054528  0.312683  1.911150
      ESP Fit Center   43 is at   1.878601 -0.329884  1.717090
      ESP Fit Center   44 is at   3.053907  1.132367  1.137701
      ESP Fit Center   45 is at   3.253347  1.131575  0.774639
      ESP Fit Center   46 is at   3.119389  1.529147  0.774639
      ESP Fit Center   47 is at   3.251290  1.526736  0.380693
      ESP Fit Center   48 is at   3.049044  1.891113  0.380693
      ESP Fit Center   49 is at   3.298706  1.518136 -0.028997
      ESP Fit Center   50 is at   3.104645  1.881198 -0.028997
      ESP Fit Center   51 is at   2.843483  2.199425 -0.028997
      ESP Fit Center   52 is at   2.525257  2.460587 -0.028997
      ESP Fit Center   53 is at   0.554924  2.654648 -0.028997
      ESP Fit Center   54 is at   3.376047  1.129105 -0.438686
      ESP Fit Center   55 is at   3.251290  1.526736 -0.438686
      ESP Fit Center   56 is at   3.049044  1.891113 -0.438686
      ESP Fit Center   57 is at   2.777589  2.207320 -0.438686
      ESP Fit Center   58 is at   0.842303  2.708400 -0.438686
      ESP Fit Center   59 is at   0.451502  2.563663 -0.438686
      ESP Fit Center   60 is at   3.253347  1.131575 -0.832632
      ESP Fit Center   61 is at   3.104645  0.714501 -1.195694
      ESP Fit Center   62 is at   1.975419 -0.636234 -1.513921
      ESP Fit Center   63 is at   1.878601 -0.329884 -1.775083
      ESP Fit Center   64 is at   2.220759 -0.071498 -1.775083
      ESP Fit Center   65 is at  -1.820963  0.630301  1.774559
      ESP Fit Center   66 is at  -2.271827  0.817739  1.580498
      ESP Fit Center   67 is at  -2.116941  0.417932  1.580498
      ESP Fit Center   68 is at  -2.787424  2.032369  0.638047
      ESP Fit Center   69 is at  -2.687770  2.373718  0.244102
      ESP Fit Center   70 is at  -2.925842  2.031671  0.244102
      ESP Fit Center   71 is at   0.041703  2.778205 -0.165588
      ESP Fit Center   72 is at  -2.291692  2.778205 -0.165588
      ESP Fit Center   73 is at  -2.609919  2.517043 -0.165588
      ESP Fit Center   74 is at  -2.871081  2.198816 -0.165588
      ESP Fit Center   75 is at   0.294035  2.524938 -0.575278
      ESP Fit Center   76 is at  -2.032052  2.881281 -0.575278
      ESP Fit Center   77 is at  -2.385718  2.660839 -0.575278
      ESP Fit Center   78 is at  -2.687770  2.373718 -0.575278
      ESP Fit Center   79 is at  -2.925842  2.031671 -0.575278
      ESP Fit Center   80 is at  -2.533533  2.366357 -0.969223
      ESP Fit Center   81 is at  -2.787424  2.032369 -0.969223
      ESP Fit Center   82 is at  -2.116941  0.417932 -1.911674
      ESP Fit Center   83 is at  -1.828087  0.101074 -1.911674
      ESP Fit Center   84 is at  -0.277531 -2.752011  0.019924
      ESP Fit Center   85 is at  -0.380945 -2.933244 -0.343138
      ESP Fit Center   86 is at   1.950424 -0.604051 -1.556463
      ESP Fit Center   87 is at   1.827724 -0.601581 -1.950408
      ESP Fit Center   88 is at   1.693766 -0.204009 -1.950408
      ESP Fit Center   89 is at  -1.729493 -0.018405 -1.950408
      ESP Fit Center   90 is at  -0.380945 -2.933244 -1.950408
      ESP Fit Center   91 is at   1.679022 -1.018656 -2.313470
      ESP Fit Center   92 is at  -1.613146 -0.207209 -2.313470
      ESP Fit Center   93 is at  -0.277531 -2.752011 -2.313470
      ESP Fit Center   94 is at   0.143403 -2.752011 -2.313470
      ESP Fit Center   95 is at  -0.683924 -2.369390 -2.631697
      ESP Fit Center   96 is at  -0.278391 -2.488465 -2.631697
      ESP Fit Center   97 is at   0.144263 -2.488465 -2.631697
      ESP Fit Center   98 is at   0.549796 -2.369390 -2.631697
      ESP Fit Center   99 is at  -1.059010 -1.632843 -2.892859
      ESP Fit Center  100 is at  -0.770156 -1.949700 -2.892859
      ESP Fit Center  101 is at  -0.386346 -2.140815 -2.892859
      ESP Fit Center  102 is at   0.040585 -2.180376 -2.892859
      ESP Fit Center  103 is at   0.452978 -2.063040 -2.892859
      ESP Fit Center  104 is at  -1.564311 -1.248467  3.015089
      ESP Fit Center  105 is at  -1.346903 -1.625028  3.015089
      ESP Fit Center  106 is at  -1.856956 -0.828467  2.847256
      ESP Fit Center  107 is at  -1.969495 -1.248467  2.847256
      ESP Fit Center  108 is at  -1.856956 -1.668467  2.847256
      ESP Fit Center  109 is at  -1.549495 -1.975928  2.847256
      ESP Fit Center  110 is at  -1.129495 -2.088467  2.847256
      ESP Fit Center  111 is at  -1.845388 -0.300471  2.580273
      ESP Fit Center  112 is at  -2.139501 -0.623097  2.580273
      ESP Fit Center  113 is at  -2.297208 -1.030183  2.580273
      ESP Fit Center  114 is at  -2.297208 -1.466750  2.580273
      ESP Fit Center  115 is at  -2.139501 -1.873836  2.580273
      ESP Fit Center  116 is at  -1.845388 -2.196463  2.580273
      ESP Fit Center  117 is at  -1.454590 -2.391057  2.580273
      ESP Fit Center  118 is at  -1.019886 -2.431338  2.580273
      ESP Fit Center  119 is at  -2.196029 -0.258868  2.232333
      ESP Fit Center  120 is at  -2.440335 -0.617199  2.232333
      ESP Fit Center  121 is at  -2.568167 -1.031622  2.232333
      ESP Fit Center  122 is at  -2.568167 -1.465312  2.232333
      ESP Fit Center  123 is at  -2.440335 -1.879734  2.232333
      ESP Fit Center  124 is at  -2.196029 -2.238065  2.232333
      ESP Fit Center  125 is at  -1.856956 -2.508467  2.232333
      ESP Fit Center  126 is at  -1.453246 -2.666911  2.232333
      ESP Fit Center  127 is at  -1.020769 -2.699321  2.232333
      ESP Fit Center  128 is at  -0.597952 -2.602816  2.232333
      ESP Fit Center  129 is at  -2.276956 -0.101005  1.827149
      ESP Fit Center  130 is at  -2.534842 -0.437089  1.827149
      ESP Fit Center  131 is at  -2.696956 -0.828467  1.827149
      ESP Fit Center  132 is at  -2.752250 -1.248467  1.827149
      ESP Fit Center  133 is at  -2.696956 -1.668467  1.827149
      ESP Fit Center  134 is at  -2.534842 -2.059844  1.827149
      ESP Fit Center  135 is at  -2.276956 -2.395928  1.827149
      ESP Fit Center  136 is at  -1.940873 -2.653814  1.827149
      ESP Fit Center  137 is at  -1.549495 -2.815928  1.827149
      ESP Fit Center  138 is at  -1.129495 -2.871222  1.827149
      ESP Fit Center  139 is at  -0.709495 -2.815928  1.827149
      ESP Fit Center  140 is at  -2.488644 -0.260987  1.392333
      ESP Fit Center  141 is at  -2.691520 -0.630017  1.392333
      ESP Fit Center  142 is at  -2.796248 -1.037907  1.392333
      ESP Fit Center  143 is at  -2.796248 -1.459026  1.392333
      ESP Fit Center  144 is at  -2.691520 -1.866916  1.392333
      ESP Fit Center  145 is at  -2.488644 -2.235946  1.392333
      ESP Fit Center  146 is at  -2.200367 -2.542929  1.392333
      ESP Fit Center  147 is at  -1.844804 -2.768576  1.392333
      ESP Fit Center  148 is at  -1.444296 -2.898709  1.392333
      ESP Fit Center  149 is at  -1.024007 -2.925152  1.392333
      ESP Fit Center  150 is at  -0.610346 -2.846242  1.392333
      ESP Fit Center  151 is at  -2.696956 -0.828467  0.957517
      ESP Fit Center  152 is at  -2.752250 -1.248467  0.957517
      ESP Fit Center  153 is at  -2.696956 -1.668467  0.957517
      ESP Fit Center  154 is at  -2.534842 -2.059844  0.957517
      ESP Fit Center  155 is at  -2.276956 -2.395928  0.957517
      ESP Fit Center  156 is at  -1.940873 -2.653814  0.957517
      ESP Fit Center  157 is at  -1.549495 -2.815928  0.957517
      ESP Fit Center  158 is at  -1.129495 -2.871222  0.957517
      ESP Fit Center  159 is at  -0.709495 -2.815928  0.957517
      ESP Fit Center  160 is at  -2.568167 -1.031622  0.552333
      ESP Fit Center  161 is at  -2.568167 -1.465312  0.552333
      ESP Fit Center  162 is at  -2.440335 -1.879734  0.552333
      ESP Fit Center  163 is at  -2.196029 -2.238065  0.552333
      ESP Fit Center  164 is at  -1.856956 -2.508467  0.552333
      ESP Fit Center  165 is at  -1.453246 -2.666911  0.552333
      ESP Fit Center  166 is at  -1.020769 -2.699321  0.552333
      ESP Fit Center  167 is at  -2.297208 -1.466750  0.204394
      ESP Fit Center  168 is at  -2.139501 -1.873836  0.204394
      ESP Fit Center  169 is at  -1.845388 -2.196463  0.204394
      ESP Fit Center  170 is at   0.623522 -1.473029  3.168601
      ESP Fit Center  171 is at   1.058338 -1.473029  3.111357
      ESP Fit Center  172 is at   0.406114 -1.849591  3.111357
      ESP Fit Center  173 is at   0.840930 -1.849591  3.111357
      ESP Fit Center  174 is at   1.463522 -1.473029  2.943524
      ESP Fit Center  175 is at   1.350984 -1.053029  2.943524
      ESP Fit Center  176 is at   0.203522 -2.200490  2.943524
      ESP Fit Center  177 is at   0.623522 -2.313029  2.943524
      ESP Fit Center  178 is at   1.043522 -2.200490  2.943524
      ESP Fit Center  179 is at   1.350984 -1.893029  2.943524
      ESP Fit Center  180 is at   1.811462 -1.473029  2.676541
      ESP Fit Center  181 is at   1.731243 -1.043896  2.676541
      ESP Fit Center  182 is at   1.501420 -0.672719  2.676541
      ESP Fit Center  183 is at  -0.092371 -2.421025  2.676541
      ESP Fit Center  184 is at   0.298427 -2.615620  2.676541
      ESP Fit Center  185 is at   0.733132 -2.655901  2.676541
      ESP Fit Center  186 is at   1.153033 -2.536429  2.676541
      ESP Fit Center  187 is at   1.501420 -2.273339  2.676541
      ESP Fit Center  188 is at   1.731243 -1.902162  2.676541
      ESP Fit Center  189 is at   2.078445 -1.473029  2.328601
      ESP Fit Center  190 is at   2.013807 -1.044183  2.328601
      ESP Fit Center  191 is at   1.825636 -0.653442  2.328601
      ESP Fit Center  192 is at  -0.103939 -2.733029  2.328601
      ESP Fit Center  193 is at   0.299772 -2.891474  2.328601
      ESP Fit Center  194 is at   0.732249 -2.923883  2.328601
      ESP Fit Center  195 is at   1.155065 -2.827378  2.328601
      ESP Fit Center  196 is at   1.530652 -2.610533  2.328601
      ESP Fit Center  197 is at   1.825636 -2.292616  2.328601
      ESP Fit Center  198 is at   2.013807 -1.901875  2.328601
      ESP Fit Center  199 is at   2.246278 -1.473029  1.923417
      ESP Fit Center  200 is at   2.190984 -1.053029  1.923417
      ESP Fit Center  201 is at   2.028870 -0.661651  1.923417
      ESP Fit Center  202 is at  -0.187855 -2.878376  1.923417
      ESP Fit Center  203 is at   0.203522 -3.040490  1.923417
      ESP Fit Center  204 is at   0.623522 -3.095784  1.923417
      ESP Fit Center  205 is at   1.043522 -3.040490  1.923417
      ESP Fit Center  206 is at   1.434900 -2.878376  1.923417
      ESP Fit Center  207 is at   1.770984 -2.620490  1.923417
      ESP Fit Center  208 is at   2.028870 -2.284407  1.923417
      ESP Fit Center  209 is at   2.190984 -1.893029  1.923417
      ESP Fit Center  210 is at   2.303522 -1.473029  1.488601
      ESP Fit Center  211 is at   2.250742 -1.055230  1.488601
      ESP Fit Center  212 is at  -0.091787 -2.993138  1.488601
      ESP Fit Center  213 is at   0.308722 -3.123272  1.488601
      ESP Fit Center  214 is at   0.729010 -3.149714  1.488601
      ESP Fit Center  215 is at   1.142671 -3.070804  1.488601
      ESP Fit Center  216 is at   1.523711 -2.891500  1.488601
      ESP Fit Center  217 is at   1.848190 -2.623068  1.488601
      ESP Fit Center  218 is at   2.095718 -2.282375  1.488601
      ESP Fit Center  219 is at   2.250742 -1.890828  1.488601
      ESP Fit Center  220 is at   2.246278 -1.473029  1.053785
      ESP Fit Center  221 is at  -0.187855 -2.878376  1.053785
      ESP Fit Center  222 is at   0.203522 -3.040490  1.053785
      ESP Fit Center  223 is at   0.623522 -3.095784  1.053785
      ESP Fit Center  224 is at   1.043522 -3.040490  1.053785
      ESP Fit Center  225 is at   1.434900 -2.878376  1.053785
      ESP Fit Center  226 is at   1.770984 -2.620490  1.053785
      ESP Fit Center  227 is at   2.028870 -2.284407  1.053785
      ESP Fit Center  228 is at   2.190984 -1.893029  1.053785
      ESP Fit Center  229 is at  -0.103939 -2.733029  0.648601
      ESP Fit Center  230 is at   0.299772 -2.891474  0.648601
      ESP Fit Center  231 is at   0.732249 -2.923883  0.648601
      ESP Fit Center  232 is at   1.155065 -2.827378  0.648601
      ESP Fit Center  233 is at   1.530652 -2.610533  0.648601
      ESP Fit Center  234 is at   1.825636 -2.292616  0.648601
      ESP Fit Center  235 is at   2.013807 -1.901875  0.648601
      ESP Fit Center  236 is at   1.731243 -1.902162  0.300662
      ESP Fit Center  237 is at  -0.122873 -0.025241  3.861255
      ESP Fit Center  238 is at   0.311943 -0.025241  3.804010
      ESP Fit Center  239 is at   0.094535  0.351321  3.804010
      ESP Fit Center  240 is at  -0.340281  0.351321  3.804010
      ESP Fit Center  241 is at  -0.557689 -0.025241  3.804010
      ESP Fit Center  242 is at  -0.340281 -0.401803  3.804010
      ESP Fit Center  243 is at   0.094535 -0.401803  3.804010
      ESP Fit Center  244 is at   0.717127 -0.025241  3.636177
      ESP Fit Center  245 is at   0.604589  0.394759  3.636177
      ESP Fit Center  246 is at   0.297127  0.702220  3.636177
      ESP Fit Center  247 is at  -0.122873  0.814759  3.636177
      ESP Fit Center  248 is at  -0.542873  0.702220  3.636177
      ESP Fit Center  249 is at  -0.850334  0.394759  3.636177
      ESP Fit Center  250 is at  -0.962873 -0.025241  3.636177
      ESP Fit Center  251 is at  -0.850334 -0.445241  3.636177
      ESP Fit Center  252 is at  -0.542873 -0.752702  3.636177
      ESP Fit Center  253 is at  -0.122873 -0.865241  3.636177
      ESP Fit Center  254 is at   0.297127 -0.752702  3.636177
      ESP Fit Center  255 is at   0.604589 -0.445241  3.636177
      ESP Fit Center  256 is at   1.065067 -0.025241  3.369194
      ESP Fit Center  257 is at   0.984848  0.403892  3.369194
      ESP Fit Center  258 is at   0.755025  0.775068  3.369194
      ESP Fit Center  259 is at   0.406637  1.038159  3.369194
      ESP Fit Center  260 is at  -0.013264  1.157631  3.369194
      ESP Fit Center  261 is at  -0.447968  1.117349  3.369194
      ESP Fit Center  262 is at  -0.838766  0.922755  3.369194
      ESP Fit Center  263 is at  -1.132879  0.600128  3.369194
      ESP Fit Center  264 is at  -1.290585  0.193042  3.369194
      ESP Fit Center  265 is at  -1.290585 -0.243524  3.369194
      ESP Fit Center  266 is at  -1.132879 -0.650611  3.369194
      ESP Fit Center  267 is at  -0.838766 -0.973237  3.369194
      ESP Fit Center  268 is at   0.406637 -1.088641  3.369194
      ESP Fit Center  269 is at   0.755025 -0.825551  3.369194
      ESP Fit Center  270 is at   0.984848 -0.454374  3.369194
      ESP Fit Center  271 is at   1.332050 -0.025241  3.021255
      ESP Fit Center  272 is at   1.267412  0.403605  3.021255
      ESP Fit Center  273 is at   1.079241  0.794346  3.021255
      ESP Fit Center  274 is at   0.784257  1.112263  3.021255
      ESP Fit Center  275 is at   0.408670  1.329108  3.021255
      ESP Fit Center  276 is at  -0.014146  1.425613  3.021255
      ESP Fit Center  277 is at  -0.446624  1.393204  3.021255
      ESP Fit Center  278 is at  -0.850334  1.234759  3.021255
      ESP Fit Center  279 is at  -1.189407  0.964358  3.021255
      ESP Fit Center  280 is at  -1.433713  0.606026  3.021255
      ESP Fit Center  281 is at  -1.561545  0.191604  3.021255
      ESP Fit Center  282 is at  -1.561545 -0.242086  3.021255
      ESP Fit Center  283 is at  -1.433713 -0.656508  3.021255
      ESP Fit Center  284 is at   1.267412 -0.454087  3.021255
      ESP Fit Center  285 is at   1.499883 -0.025241  2.616071
      ESP Fit Center  286 is at   1.444589  0.394759  2.616071
      ESP Fit Center  287 is at   1.282475  0.786137  2.616071
      ESP Fit Center  288 is at   1.024589  1.122220  2.616071
      ESP Fit Center  289 is at   0.688505  1.380106  2.616071
      ESP Fit Center  290 is at   0.297127  1.542220  2.616071
      ESP Fit Center  291 is at  -0.122873  1.597514  2.616071
      ESP Fit Center  292 is at  -0.542873  1.542220  2.616071
      ESP Fit Center  293 is at  -0.934251  1.380106  2.616071
      ESP Fit Center  294 is at  -1.270334  1.122220  2.616071
      ESP Fit Center  295 is at  -1.528220  0.786137  2.616071
      ESP Fit Center  296 is at  -1.690334  0.394759  2.616071
      ESP Fit Center  297 is at  -1.745628 -0.025241  2.616071
      ESP Fit Center  298 is at   1.504347  0.392558  2.181255
      ESP Fit Center  299 is at   0.396276  1.572534  2.181255
      ESP Fit Center  300 is at  -0.017385  1.651444  2.181255
      ESP Fit Center  301 is at  -0.437673  1.625001  2.181255
      ESP Fit Center  302 is at  -1.482021  0.962238  2.181255
      ESP Fit Center  303 is at  -1.684897  0.593208  2.181255
      ESP Fit Center  304 is at   2.913107  2.055598 -0.541547
      ESP Fit Center  305 is at   2.655221  2.391681 -0.541547
      ESP Fit Center  306 is at   2.319137  2.649567 -0.541547
      ESP Fit Center  307 is at   1.927759  2.811681 -0.541547
      ESP Fit Center  308 is at   1.507759  2.866975 -0.541547
      ESP Fit Center  309 is at   1.087759  2.811681 -0.541547
      ESP Fit Center  310 is at   0.696382  2.649567 -0.541547
      ESP Fit Center  311 is at   3.187759  1.244220 -0.976363
      ESP Fit Center  312 is at   3.134979  1.662019 -0.976363
      ESP Fit Center  313 is at   2.979954  2.053566 -0.976363
      ESP Fit Center  314 is at   2.732427  2.394259 -0.976363
      ESP Fit Center  315 is at   2.407948  2.662691 -0.976363
      ESP Fit Center  316 is at   2.026908  2.841995 -0.976363
      ESP Fit Center  317 is at   1.613247  2.920905 -0.976363
      ESP Fit Center  318 is at   1.192959  2.894462 -0.976363
      ESP Fit Center  319 is at   0.792450  2.764329 -0.976363
      ESP Fit Center  320 is at   0.436887  2.538682 -0.976363
      ESP Fit Center  321 is at   3.130515  1.244220 -1.411179
      ESP Fit Center  322 is at   3.075221  1.664220 -1.411179
      ESP Fit Center  323 is at   2.913107  2.055598 -1.411179
      ESP Fit Center  324 is at   2.655221  2.391681 -1.411179
      ESP Fit Center  325 is at   2.319137  2.649567 -1.411179
      ESP Fit Center  326 is at   1.927759  2.811681 -1.411179
      ESP Fit Center  327 is at   1.507759  2.866975 -1.411179
      ESP Fit Center  328 is at   1.087759  2.811681 -1.411179
      ESP Fit Center  329 is at   0.696382  2.649567 -1.411179
      ESP Fit Center  330 is at   3.075221  0.824220 -1.411179
      ESP Fit Center  331 is at   2.962682  1.244220 -1.816363
      ESP Fit Center  332 is at   2.898044  1.673066 -1.816363
      ESP Fit Center  333 is at   2.709873  2.063807 -1.816363
      ESP Fit Center  334 is at   2.414889  2.381724 -1.816363
      ESP Fit Center  335 is at   2.039302  2.598569 -1.816363
      ESP Fit Center  336 is at   1.616486  2.695074 -1.816363
      ESP Fit Center  337 is at   1.184009  2.662665 -1.816363
      ESP Fit Center  338 is at   0.780298  2.504220 -1.816363
      ESP Fit Center  339 is at   0.441225  2.233819 -1.816363
      ESP Fit Center  340 is at   2.414889  0.106715 -1.816363
      ESP Fit Center  341 is at   2.709873  0.424633 -1.816363
      ESP Fit Center  342 is at   2.898044  0.815374 -1.816363
      ESP Fit Center  343 is at   2.695699  1.244220 -2.164302
      ESP Fit Center  344 is at   2.615480  1.673353 -2.164302
      ESP Fit Center  345 is at   2.385657  2.044529 -2.164302
      ESP Fit Center  346 is at   2.037269  2.307620 -2.164302
      ESP Fit Center  347 is at   1.617368  2.427092 -2.164302
      ESP Fit Center  348 is at   1.182664  2.386810 -2.164302
      ESP Fit Center  349 is at   0.791866  2.192216 -2.164302
      ESP Fit Center  350 is at   0.497753  1.869589 -2.164302
      ESP Fit Center  351 is at   0.340047  1.462503 -2.164302
      ESP Fit Center  352 is at   2.037269  0.180820 -2.164302
      ESP Fit Center  353 is at   2.385657  0.443910 -2.164302
      ESP Fit Center  354 is at   2.615480  0.815087 -2.164302
      ESP Fit Center  355 is at   2.347759  1.244220 -2.431286
      ESP Fit Center  356 is at   2.235221  1.664220 -2.431286
      ESP Fit Center  357 is at   1.927759  1.971681 -2.431286
      ESP Fit Center  358 is at   1.507759  2.084220 -2.431286
      ESP Fit Center  359 is at   1.087759  1.971681 -2.431286
      ESP Fit Center  360 is at   0.780298  1.664220 -2.431286
      ESP Fit Center  361 is at   0.667759  1.244220 -2.431286
      ESP Fit Center  362 is at   1.507759  0.404220 -2.431286
      ESP Fit Center  363 is at   1.927759  0.516758 -2.431286
      ESP Fit Center  364 is at   2.235221  0.824220 -2.431286
      ESP Fit Center  365 is at   1.942575  1.244220 -2.599118
      ESP Fit Center  366 is at   1.725167  1.620782 -2.599118
      ESP Fit Center  367 is at   1.290351  1.620782 -2.599118
      ESP Fit Center  368 is at   1.072943  1.244220 -2.599118
      ESP Fit Center  369 is at   1.290351  0.867658 -2.599118
      ESP Fit Center  370 is at   1.725167  0.867658 -2.599118
      ESP Fit Center  371 is at   1.507759  1.244220 -2.656363
      ESP Fit Center  372 is at   2.183448  0.002449  1.767581
      ESP Fit Center  373 is at   2.618264  0.002449  1.710337
      ESP Fit Center  374 is at   1.966040 -0.374113  1.710337
      ESP Fit Center  375 is at   2.400856 -0.374113  1.710337
      ESP Fit Center  376 is at   3.023448  0.002449  1.542504
      ESP Fit Center  377 is at   2.910910  0.422449  1.542504
      ESP Fit Center  378 is at   2.183448 -0.837551  1.542504
      ESP Fit Center  379 is at   2.603448 -0.725013  1.542504
      ESP Fit Center  380 is at   2.910910 -0.417551  1.542504
      ESP Fit Center  381 is at   3.371388  0.002449  1.275521
      ESP Fit Center  382 is at   3.291169  0.431582  1.275521
      ESP Fit Center  383 is at   3.061346  0.802758  1.275521
      ESP Fit Center  384 is at   2.293058 -1.180423  1.275521
      ESP Fit Center  385 is at   2.712959 -1.060951  1.275521
      ESP Fit Center  386 is at   3.061346 -0.797861  1.275521
      ESP Fit Center  387 is at   3.291169 -0.426685  1.275521
      ESP Fit Center  388 is at   3.638371  0.002449  0.927581
      ESP Fit Center  389 is at   3.573733  0.431295  0.927581
      ESP Fit Center  390 is at   3.385562  0.822036  0.927581
      ESP Fit Center  391 is at   2.292175 -1.448406  0.927581
      ESP Fit Center  392 is at   2.714991 -1.351901  0.927581
      ESP Fit Center  393 is at   3.090578 -1.135056  0.927581
      ESP Fit Center  394 is at   3.385562 -0.817139  0.927581
      ESP Fit Center  395 is at   3.573733 -0.426397  0.927581
      ESP Fit Center  396 is at   3.806204  0.002449  0.522397
      ESP Fit Center  397 is at   3.750910  0.422449  0.522397
      ESP Fit Center  398 is at   3.588796  0.813826  0.522397
      ESP Fit Center  399 is at   2.183448 -1.620307  0.522397
      ESP Fit Center  400 is at   2.603448 -1.565013  0.522397
      ESP Fit Center  401 is at   2.994826 -1.402899  0.522397
      ESP Fit Center  402 is at   3.330910 -1.145013  0.522397
      ESP Fit Center  403 is at   3.588796 -0.808929  0.522397
      ESP Fit Center  404 is at   3.750910 -0.417551  0.522397
      ESP Fit Center  405 is at   3.863448  0.002449  0.087581
      ESP Fit Center  406 is at   3.810668  0.420248  0.087581
      ESP Fit Center  407 is at   3.655644  0.811795  0.087581
      ESP Fit Center  408 is at   2.288936 -1.674236  0.087581
      ESP Fit Center  409 is at   2.702597 -1.595326  0.087581
      ESP Fit Center  410 is at   3.083637 -1.416022  0.087581
      ESP Fit Center  411 is at   3.408116 -1.147591  0.087581
      ESP Fit Center  412 is at   3.655644 -0.806898  0.087581
      ESP Fit Center  413 is at   3.810668 -0.415350  0.087581
      ESP Fit Center  414 is at   3.806204  0.002449 -0.347235
      ESP Fit Center  415 is at   3.750910  0.422449 -0.347235
      ESP Fit Center  416 is at   3.588796  0.813826 -0.347235
      ESP Fit Center  417 is at   2.603448 -1.565013 -0.347235
      ESP Fit Center  418 is at   2.994826 -1.402899 -0.347235
      ESP Fit Center  419 is at   3.330910 -1.145013 -0.347235
      ESP Fit Center  420 is at   3.588796 -0.808929 -0.347235
      ESP Fit Center  421 is at   3.750910 -0.417551 -0.347235
      ESP Fit Center  422 is at   3.638371  0.002449 -0.752419
      ESP Fit Center  423 is at   3.573733  0.431295 -0.752419
      ESP Fit Center  424 is at   3.385562  0.822036 -0.752419
      ESP Fit Center  425 is at   2.714991 -1.351901 -0.752419
      ESP Fit Center  426 is at   3.090578 -1.135056 -0.752419
      ESP Fit Center  427 is at   3.385562 -0.817139 -0.752419
      ESP Fit Center  428 is at   3.573733 -0.426397 -0.752419
      ESP Fit Center  429 is at   3.371388  0.002449 -1.100358
      ESP Fit Center  430 is at   3.291169  0.431582 -1.100358
      ESP Fit Center  431 is at   2.712959 -1.060951 -1.100358
      ESP Fit Center  432 is at   3.061346 -0.797861 -1.100358
      ESP Fit Center  433 is at   3.291169 -0.426685 -1.100358
      ESP Fit Center  434 is at   3.023448  0.002449 -1.367342
      ESP Fit Center  435 is at   2.183448 -0.837551 -1.367342
      ESP Fit Center  436 is at   2.603448 -0.725013 -1.367342
      ESP Fit Center  437 is at   2.910910 -0.417551 -1.367342
      ESP Fit Center  438 is at   2.400856 -0.374113 -1.535174
      ESP Fit Center  439 is at   1.437249  1.450106  2.459262
      ESP Fit Center  440 is at   1.872065  1.450106  2.402018
      ESP Fit Center  441 is at   1.654657  1.826668  2.402018
      ESP Fit Center  442 is at   1.219841  1.826668  2.402018
      ESP Fit Center  443 is at   1.002433  1.450106  2.402018
      ESP Fit Center  444 is at   1.219841  1.073544  2.402018
      ESP Fit Center  445 is at   1.654657  1.073544  2.402018
      ESP Fit Center  446 is at   2.277249  1.450106  2.234185
      ESP Fit Center  447 is at   2.164710  1.870106  2.234185
      ESP Fit Center  448 is at   1.857249  2.177568  2.234185
      ESP Fit Center  449 is at   1.437249  2.290106  2.234185
      ESP Fit Center  450 is at   1.017249  2.177568  2.234185
      ESP Fit Center  451 is at   0.709788  1.870106  2.234185
      ESP Fit Center  452 is at   1.437249  0.610106  2.234185
      ESP Fit Center  453 is at   1.857249  0.722645  2.234185
      ESP Fit Center  454 is at   2.164710  1.030106  2.234185
      ESP Fit Center  455 is at   2.625188  1.450106  1.967202
      ESP Fit Center  456 is at   2.544970  1.879239  1.967202
      ESP Fit Center  457 is at   2.315147  2.250416  1.967202
      ESP Fit Center  458 is at   1.966759  2.513506  1.967202
      ESP Fit Center  459 is at   1.546858  2.632978  1.967202
      ESP Fit Center  460 is at   1.112154  2.592697  1.967202
      ESP Fit Center  461 is at   0.721356  2.398102  1.967202
      ESP Fit Center  462 is at   0.427243  2.075476  1.967202
      ESP Fit Center  463 is at   0.269537  1.668389  1.967202
      ESP Fit Center  464 is at   1.966759  0.386706  1.967202
      ESP Fit Center  465 is at   2.315147  0.649797  1.967202
      ESP Fit Center  466 is at   2.544970  1.020973  1.967202
      ESP Fit Center  467 is at   2.892172  1.450106  1.619262
      ESP Fit Center  468 is at   2.827534  1.878952  1.619262
      ESP Fit Center  469 is at   2.639363  2.269693  1.619262
      ESP Fit Center  470 is at   2.344378  2.587611  1.619262
      ESP Fit Center  471 is at   1.968792  2.804455  1.619262
      ESP Fit Center  472 is at   1.545976  2.900961  1.619262
      ESP Fit Center  473 is at   1.113498  2.868551  1.619262
      ESP Fit Center  474 is at   0.709788  2.710106  1.619262
      ESP Fit Center  475 is at   0.370715  2.439705  1.619262
      ESP Fit Center  476 is at   2.827534  1.021260  1.619262
      ESP Fit Center  477 is at   3.060004  1.450106  1.214078
      ESP Fit Center  478 is at   3.004710  1.870106  1.214078
      ESP Fit Center  479 is at   2.842596  2.261484  1.214078
      ESP Fit Center  480 is at   2.584710  2.597568  1.214078
      ESP Fit Center  481 is at   2.248627  2.855454  1.214078
      ESP Fit Center  482 is at   1.857249  3.017568  1.214078
      ESP Fit Center  483 is at   1.437249  3.072862  1.214078
      ESP Fit Center  484 is at   1.017249  3.017568  1.214078
      ESP Fit Center  485 is at   0.625871  2.855454  1.214078
      ESP Fit Center  486 is at   0.289788  2.597568  1.214078
      ESP Fit Center  487 is at   3.064469  1.867905  0.779262
      ESP Fit Center  488 is at   2.909444  2.259452  0.779262
      ESP Fit Center  489 is at   2.661916  2.600145  0.779262
      ESP Fit Center  490 is at   2.337438  2.868577  0.779262
      ESP Fit Center  491 is at   1.956398  3.047881  0.779262
      ESP Fit Center  492 is at   1.542737  3.126791  0.779262
      ESP Fit Center  493 is at   1.122448  3.100349  0.779262
      ESP Fit Center  494 is at   0.721940  2.970216  0.779262
      ESP Fit Center  495 is at   0.366377  2.744568  0.779262
      ESP Fit Center  496 is at   2.842596  2.261484  0.344446
      ESP Fit Center  497 is at   2.584710  2.597568  0.344446
      ESP Fit Center  498 is at   2.248627  2.855454  0.344446
      ESP Fit Center  499 is at   1.857249  3.017568  0.344446
      ESP Fit Center  500 is at   1.437249  3.072862  0.344446
      ESP Fit Center  501 is at   1.017249  3.017568  0.344446
      ESP Fit Center  502 is at   0.625871  2.855454  0.344446
      ESP Fit Center  503 is at   2.344378  2.587611 -0.060738
      ESP Fit Center  504 is at   1.968792  2.804455 -0.060738
      ESP Fit Center  505 is at   1.545976  2.900961 -0.060738
      ESP Fit Center  506 is at   1.113498  2.868551 -0.060738
      ESP Fit Center  507 is at   0.115615  2.716111 -0.682115
      ESP Fit Center  508 is at  -0.220469  2.973997 -0.682115
      ESP Fit Center  509 is at  -0.611846  3.136111 -0.682115
      ESP Fit Center  510 is at  -1.031846  3.191405 -0.682115
      ESP Fit Center  511 is at  -1.451846  3.136111 -0.682115
      ESP Fit Center  512 is at  -1.843224  2.973997 -0.682115
      ESP Fit Center  513 is at   0.192821  2.718688 -1.116931
      ESP Fit Center  514 is at  -0.131657  2.987120 -1.116931
      ESP Fit Center  515 is at  -0.512698  3.166424 -1.116931
      ESP Fit Center  516 is at  -0.926358  3.245334 -1.116931
      ESP Fit Center  517 is at  -1.346647  3.218892 -1.116931
      ESP Fit Center  518 is at  -1.747156  3.088759 -1.116931
      ESP Fit Center  519 is at  -2.102719  2.863111 -1.116931
      ESP Fit Center  520 is at  -2.390995  2.556128 -1.116931
      ESP Fit Center  521 is at   0.373501  2.380027 -1.551747
      ESP Fit Center  522 is at   0.115615  2.716111 -1.551747
      ESP Fit Center  523 is at  -0.220469  2.973997 -1.551747
      ESP Fit Center  524 is at  -0.611846  3.136111 -1.551747
      ESP Fit Center  525 is at  -1.031846  3.191405 -1.551747
      ESP Fit Center  526 is at  -1.451846  3.136111 -1.551747
      ESP Fit Center  527 is at  -1.843224  2.973997 -1.551747
      ESP Fit Center  528 is at  -2.179308  2.716111 -1.551747
      ESP Fit Center  529 is at  -2.437194  2.380027 -1.551747
      ESP Fit Center  530 is at  -2.599308  1.988649 -1.551747
      ESP Fit Center  531 is at  -2.654602  1.568649 -1.551747
      ESP Fit Center  532 is at   0.358438  1.997495 -1.956931
      ESP Fit Center  533 is at   0.170267  2.388236 -1.956931
      ESP Fit Center  534 is at  -0.124717  2.706154 -1.956931
      ESP Fit Center  535 is at  -0.500304  2.922999 -1.956931
      ESP Fit Center  536 is at  -0.923120  3.019504 -1.956931
      ESP Fit Center  537 is at  -1.355597  2.987094 -1.956931
      ESP Fit Center  538 is at  -1.759308  2.828649 -1.956931
      ESP Fit Center  539 is at  -2.098380  2.558248 -1.956931
      ESP Fit Center  540 is at  -2.342687  2.199916 -1.956931
      ESP Fit Center  541 is at  -2.470519  1.785494 -1.956931
      ESP Fit Center  542 is at  -2.470519  1.351804 -1.956931
      ESP Fit Center  543 is at  -2.342687  0.937382 -1.956931
      ESP Fit Center  544 is at   0.156093  1.568649 -2.304870
      ESP Fit Center  545 is at   0.075874  1.997782 -2.304870
      ESP Fit Center  546 is at  -0.153949  2.368959 -2.304870
      ESP Fit Center  547 is at  -0.502336  2.632049 -2.304870
      ESP Fit Center  548 is at  -0.922237  2.751521 -2.304870
      ESP Fit Center  549 is at  -1.356942  2.711240 -2.304870
      ESP Fit Center  550 is at  -1.747740  2.516645 -2.304870
      ESP Fit Center  551 is at  -2.041853  2.194019 -2.304870
      ESP Fit Center  552 is at  -2.199559  1.786932 -2.304870
      ESP Fit Center  553 is at  -2.199559  1.350366 -2.304870
      ESP Fit Center  554 is at  -2.041853  0.943280 -2.304870
      ESP Fit Center  555 is at  -1.747740  0.620653 -2.304870
      ESP Fit Center  556 is at  -1.356942  0.426059 -2.304870
      ESP Fit Center  557 is at  -0.191846  1.568649 -2.571853
      ESP Fit Center  558 is at  -0.304385  1.988649 -2.571853
      ESP Fit Center  559 is at  -0.611846  2.296111 -2.571853
      ESP Fit Center  560 is at  -1.031846  2.408649 -2.571853
      ESP Fit Center  561 is at  -1.451846  2.296111 -2.571853
      ESP Fit Center  562 is at  -1.759308  1.988649 -2.571853
      ESP Fit Center  563 is at  -1.871846  1.568649 -2.571853
      ESP Fit Center  564 is at  -1.759308  1.148649 -2.571853
      ESP Fit Center  565 is at  -1.451846  0.841188 -2.571853
      ESP Fit Center  566 is at  -1.031846  0.728649 -2.571853
      ESP Fit Center  567 is at  -0.304385  1.148649 -2.571853
      ESP Fit Center  568 is at  -0.597030  1.568649 -2.739686
      ESP Fit Center  569 is at  -0.814438  1.945211 -2.739686
      ESP Fit Center  570 is at  -1.249254  1.945211 -2.739686
      ESP Fit Center  571 is at  -1.466662  1.568649 -2.739686
      ESP Fit Center  572 is at  -1.249254  1.192087 -2.739686
      ESP Fit Center  573 is at  -0.814438  1.192087 -2.739686
      ESP Fit Center  574 is at  -1.031846  1.568649 -2.796931
      ESP Fit Center  575 is at  -2.544153  0.550459  1.473600
      ESP Fit Center  576 is at  -2.326745  0.173897  1.473600
      ESP Fit Center  577 is at  -2.836798  0.970459  1.305767
      ESP Fit Center  578 is at  -2.949337  0.550459  1.305767
      ESP Fit Center  579 is at  -2.836798  0.130459  1.305767
      ESP Fit Center  580 is at  -2.529337 -0.177003  1.305767
      ESP Fit Center  581 is at  -2.825230  1.498455  1.038784
      ESP Fit Center  582 is at  -3.119343  1.175828  1.038784
      ESP Fit Center  583 is at  -3.277049  0.768742  1.038784
      ESP Fit Center  584 is at  -3.277049  0.332175  1.038784
      ESP Fit Center  585 is at  -3.119343 -0.074911  1.038784
      ESP Fit Center  586 is at  -2.825230 -0.397538  1.038784
      ESP Fit Center  587 is at  -3.175871  1.540057  0.690844
      ESP Fit Center  588 is at  -3.420177  1.181726  0.690844
      ESP Fit Center  589 is at  -3.548009  0.767303  0.690844
      ESP Fit Center  590 is at  -3.548009  0.333614  0.690844
      ESP Fit Center  591 is at  -3.420177 -0.080809  0.690844
      ESP Fit Center  592 is at  -3.175871 -0.439140  0.690844
      ESP Fit Center  593 is at  -2.836798 -0.709541  0.690844
      ESP Fit Center  594 is at  -3.256798  1.697920  0.285660
      ESP Fit Center  595 is at  -3.514684  1.361836  0.285660
      ESP Fit Center  596 is at  -3.676798  0.970459  0.285660
      ESP Fit Center  597 is at  -3.732092  0.550459  0.285660
      ESP Fit Center  598 is at  -3.676798  0.130459  0.285660
      ESP Fit Center  599 is at  -3.514684 -0.260919  0.285660
      ESP Fit Center  600 is at  -3.256798 -0.597003  0.285660
      ESP Fit Center  601 is at  -2.920714 -0.854889  0.285660
      ESP Fit Center  602 is at  -2.529337 -1.017003  0.285660
      ESP Fit Center  603 is at  -3.180209  1.844921 -0.149156
      ESP Fit Center  604 is at  -3.468485  1.537938 -0.149156
      ESP Fit Center  605 is at  -3.671361  1.168908 -0.149156
      ESP Fit Center  606 is at  -3.776089  0.761018 -0.149156
      ESP Fit Center  607 is at  -3.776089  0.339899 -0.149156
      ESP Fit Center  608 is at  -3.671361 -0.067991 -0.149156
      ESP Fit Center  609 is at  -3.468485 -0.437021 -0.149156
      ESP Fit Center  610 is at  -3.180209 -0.744004 -0.149156
      ESP Fit Center  611 is at  -2.824646 -0.969651 -0.149156
      ESP Fit Center  612 is at  -2.424137 -1.099784 -0.149156
      ESP Fit Center  613 is at  -3.256798  1.697920 -0.583972
      ESP Fit Center  614 is at  -3.514684  1.361836 -0.583972
      ESP Fit Center  615 is at  -3.676798  0.970459 -0.583972
      ESP Fit Center  616 is at  -3.732092  0.550459 -0.583972
      ESP Fit Center  617 is at  -3.676798  0.130459 -0.583972
      ESP Fit Center  618 is at  -3.514684 -0.260919 -0.583972
      ESP Fit Center  619 is at  -3.256798 -0.597003 -0.583972
      ESP Fit Center  620 is at  -2.920714 -0.854889 -0.583972
      ESP Fit Center  621 is at  -2.529337 -1.017003 -0.583972
      ESP Fit Center  622 is at  -3.175871  1.540057 -0.989156
      ESP Fit Center  623 is at  -3.420177  1.181726 -0.989156
      ESP Fit Center  624 is at  -3.548009  0.767303 -0.989156
      ESP Fit Center  625 is at  -3.548009  0.333614 -0.989156
      ESP Fit Center  626 is at  -3.420177 -0.080809 -0.989156
      ESP Fit Center  627 is at  -3.175871 -0.439140 -0.989156
      ESP Fit Center  628 is at  -2.836798 -0.709541 -0.989156
      ESP Fit Center  629 is at  -2.825230  1.498455 -1.337095
      ESP Fit Center  630 is at  -3.119343  1.175828 -1.337095
      ESP Fit Center  631 is at  -3.277049  0.768742 -1.337095
      ESP Fit Center  632 is at  -3.277049  0.332175 -1.337095
      ESP Fit Center  633 is at  -3.119343 -0.074911 -1.337095
      ESP Fit Center  634 is at  -2.825230 -0.397538 -1.337095
      ESP Fit Center  635 is at  -2.434432 -0.592132 -1.337095
      ESP Fit Center  636 is at  -2.836798  0.970459 -1.604078
      ESP Fit Center  637 is at  -2.949337  0.550459 -1.604078
      ESP Fit Center  638 is at  -2.836798  0.130459 -1.604078
      ESP Fit Center  639 is at  -2.529337 -0.177003 -1.604078
      ESP Fit Center  640 is at  -2.109337 -0.289541 -1.604078
      ESP Fit Center  641 is at  -2.544153  0.550459 -1.771911
      ESP Fit Center  642 is at  -2.326745  0.173897 -1.771911
      ESP Fit Center  643 is at  -1.102715  1.773684  2.319766
      ESP Fit Center  644 is at  -0.667899  1.773684  2.262521
      ESP Fit Center  645 is at  -0.885307  2.150246  2.262521
      ESP Fit Center  646 is at  -1.320123  2.150246  2.262521
      ESP Fit Center  647 is at  -1.537531  1.773684  2.262521
      ESP Fit Center  648 is at  -1.320123  1.397122  2.262521
      ESP Fit Center  649 is at  -0.262715  1.773684  2.094689
      ESP Fit Center  650 is at  -0.375253  2.193684  2.094689
      ESP Fit Center  651 is at  -0.682715  2.501145  2.094689
      ESP Fit Center  652 is at  -1.102715  2.613684  2.094689
      ESP Fit Center  653 is at  -1.522715  2.501145  2.094689
      ESP Fit Center  654 is at  -1.830176  2.193684  2.094689
      ESP Fit Center  655 is at  -1.942715  1.773684  2.094689
      ESP Fit Center  656 is at  -1.830176  1.353684  2.094689
      ESP Fit Center  657 is at  -1.522715  1.046223  2.094689
      ESP Fit Center  658 is at   0.085225  1.773684  1.827705
      ESP Fit Center  659 is at   0.005006  2.202817  1.827705
      ESP Fit Center  660 is at  -0.224817  2.573994  1.827705
      ESP Fit Center  661 is at  -0.573204  2.837084  1.827705
      ESP Fit Center  662 is at  -0.993105  2.956556  1.827705
      ESP Fit Center  663 is at  -1.427810  2.916275  1.827705
      ESP Fit Center  664 is at  -1.818608  2.721680  1.827705
      ESP Fit Center  665 is at  -2.112721  2.399053  1.827705
      ESP Fit Center  666 is at  -2.270427  1.991967  1.827705
      ESP Fit Center  667 is at  -2.270427  1.555401  1.827705
      ESP Fit Center  668 is at  -2.112721  1.148314  1.827705
      ESP Fit Center  669 is at  -1.818608  0.825688  1.827705
      ESP Fit Center  670 is at   0.099399  2.593271  1.479766
[...]
 3780 Fit      -0.000356
 3781 Fit      -0.000276
 3782 Fit      -0.000213
 3783 Fit      -0.000171
 3784 Fit      -0.000153
 3785 Fit      -0.000159
 3786 Fit      -0.000185
 3787 Fit      -0.000227
 3788 Fit      -0.000279
 3789 Fit      -0.000335
 3790 Fit      -0.000375
 3791 Fit      -0.001253
 3792 Fit      -0.001147
 3793 Fit      -0.001061
 3794 Fit      -0.000984
 3795 Fit      -0.000915
 3796 Fit      -0.000859
 3797 Fit      -0.000821
 3798 Fit      -0.000803
 3799 Fit      -0.000806
 3800 Fit      -0.000828
 3801 Fit      -0.000868
 3802 Fit      -0.000928
 3803 Fit      -0.001016
 3804 Fit      -0.001152
 3805 Fit      -0.001566
 3806 Fit      -0.001526
 3807 Fit      -0.001494
 3808 Fit      -0.001473
 3809 Fit      -0.001462
 3810 Fit      -0.001461
 3811 Fit      -0.001471
 3812 Fit      -0.001274
 3813 Fit      -0.000976
 3814 Fit      -0.000776
 3815 Fit      -0.000690
 3816 Fit      -0.000736
 3817 Fit      -0.001254
 3818 Fit      -0.000816
 3819 Fit      -0.000455
 3820 Fit      -0.000181
 3821 Fit       0.000006
 3822 Fit       0.000117
 3823 Fit      -0.001367
 3824 Fit      -0.000844
 3825 Fit      -0.000375
 3826 Fit       0.000025
 3827 Fit       0.000350
 3828 Fit       0.000604
 3829 Fit       0.000808
 3830 Fit       0.001014
 3831 Fit      -0.001266
 3832 Fit      -0.000709
 3833 Fit      -0.000193
 3834 Fit       0.000265
 3835 Fit       0.000655
 3836 Fit       0.000978
 3837 Fit       0.001249
 3838 Fit       0.001502
 3839 Fit       0.001814
 3840 Fit      -0.001218
 3841 Fit      -0.000626
 3842 Fit      -0.000062
 3843 Fit       0.000449
 3844 Fit       0.000895
 3845 Fit       0.001274
 3846 Fit       0.001595
 3847 Fit       0.001888
 3848 Fit       0.002212
 3849 Fit      -0.001532
 3850 Fit      -0.000933
 3851 Fit      -0.000319
 3852 Fit       0.000266
 3853 Fit       0.000797
 3854 Fit       0.001259
 3855 Fit       0.001654
 3856 Fit       0.001996
 3857 Fit       0.002321
 3858 Fit       0.002695
 3859 Fit      -0.001300
 3860 Fit      -0.000702
 3861 Fit      -0.000084
 3862 Fit       0.000506
 3863 Fit       0.001041
 3864 Fit       0.001508
 3865 Fit       0.001911
 3866 Fit       0.002268
 3867 Fit       0.002618
 3868 Fit       0.003021
 3869 Fit       0.003549
 3870 Fit      -0.001172
 3871 Fit      -0.000552
 3872 Fit       0.000094
 3873 Fit       0.000710
 3874 Fit       0.001264
 3875 Fit       0.001745
 3876 Fit       0.002165
 3877 Fit       0.002561
 3878 Fit       0.002995
 3879 Fit      -0.001099
 3880 Fit      -0.000466
 3881 Fit       0.000197
 3882 Fit       0.000828
 3883 Fit       0.001392
 3884 Fit       0.001886
 3885 Fit       0.002343
 3886 Fit       0.002847
 3887 Fit      -0.000803
 3888 Fit      -0.000107
 3889 Fit       0.000584
 3890 Fit       0.001211
 3891 Fit       0.001771
 3892 Fit       0.002336
 3893 Fit      -0.000939
 3894 Fit      -0.000142
 3895 Fit       0.000639
 3896 Fit       0.001335
 3897 Fit      -0.000230
 3898 Fit      -0.001130
 3899 Fit      -0.001090
 3900 Fit      -0.001219
 3901 Fit      -0.000314
 3902 Fit      -0.000374
 3903 Fit      -0.000542
 3904 Fit      -0.000812
 3905 Fit      -0.001174
 3906 Fit       0.000595
 3907 Fit       0.000435
 3908 Fit       0.000245
 3909 Fit      -0.000016
 3910 Fit      -0.000362
 3911 Fit      -0.000791
 3912 Fit      -0.001289
 3913 Fit       0.001568
 3914 Fit       0.001247
 3915 Fit       0.001003
 3916 Fit       0.000740
 3917 Fit       0.000419
 3918 Fit       0.000024
 3919 Fit      -0.000443
 3920 Fit      -0.000973
 3921 Fit      -0.001547
 3922 Fit       0.002324
 3923 Fit       0.001902
 3924 Fit       0.001603
 3925 Fit       0.001316
 3926 Fit       0.000991
 3927 Fit       0.000603
 3928 Fit       0.000146
 3929 Fit      -0.000375
 3930 Fit      -0.000945
 3931 Fit      -0.001543
 3932 Fit       0.002605
 3933 Fit       0.002219
 3934 Fit       0.001901
 3935 Fit       0.001574
 3936 Fit       0.001201
 3937 Fit       0.000762
 3938 Fit       0.000254
 3939 Fit      -0.000314
 3940 Fit      -0.000923
 3941 Fit      -0.001542
 3942 Fit       0.003065
 3943 Fit       0.002629
 3944 Fit       0.002275
 3945 Fit       0.001929
 3946 Fit       0.001545
 3947 Fit       0.001099
 3948 Fit       0.000581
 3949 Fit      -0.000001
 3950 Fit      -0.000627
 3951 Fit      -0.001263
 3952 Fit       0.003400
 3953 Fit       0.002912
 3954 Fit       0.002520
 3955 Fit       0.002156
 3956 Fit       0.001767
 3957 Fit       0.001322
 3958 Fit       0.000808
 3959 Fit       0.000229
 3960 Fit      -0.000395
 3961 Fit      -0.001029
 3962 Fit       0.002901
 3963 Fit       0.002443
 3964 Fit       0.002024
 3965 Fit       0.001574
 3966 Fit       0.001060
 3967 Fit       0.000474
 3968 Fit      -0.000168
 3969 Fit      -0.000826
 3970 Fit      -0.001430
 3971 Fit       0.002212
 3972 Fit       0.001729
 3973 Fit       0.001216
 3974 Fit       0.000635
 3975 Fit      -0.000009
 3976 Fit      -0.000679
 3977 Fit      -0.001299
 3978 Fit       0.001648
 3979 Fit       0.001083
 3980 Fit       0.000463
 3981 Fit      -0.000223
 3982 Fit      -0.000917
 3983 Fit       0.000628
 3984 Fit      -0.000104
 3985 Fit      -0.000892
 3986 Fit      -0.000929
 3987 Fit       0.001597
 3988 Fit       0.001157
 3989 Fit       0.001189
 3990 Fit       0.001539
 3991 Fit       0.001928
 3992 Fit       0.001956
 3993 Fit       0.001526
 3994 Fit       0.000620
 3995 Fit       0.000581
 3996 Fit       0.000716
 3997 Fit       0.000986
 3998 Fit       0.001349
 3999 Fit       0.001762
 4000 Fit       0.002149
 4001 Fit       0.002373
 4002 Fit       0.002301
 4003 Fit       0.001896
 4004 Fit       0.001328
 4005 Fit       0.000865
 4006 Fit       0.000009
 4007 Fit      -0.000036
 4008 Fit       0.000024
 4009 Fit       0.000176
 4010 Fit       0.000404
 4011 Fit       0.000692
 4012 Fit       0.001031
 4013 Fit       0.001417
 4014 Fit       0.001845
 4015 Fit       0.002273
 4016 Fit       0.002612
 4017 Fit       0.002770
 4018 Fit       0.002695
 4019 Fit       0.002321
 4020 Fit       0.001678
 4021 Fit       0.001001
 4022 Fit       0.000492
 4023 Fit       0.000175
 4024 Fit      -0.000638
 4025 Fit      -0.000682
 4026 Fit      -0.000654
 4027 Fit      -0.000555
 4028 Fit      -0.000392
 4029 Fit      -0.000176
 4030 Fit       0.000084
 4031 Fit       0.000379
 4032 Fit       0.000712
 4033 Fit       0.001095
 4034 Fit       0.001545
 4035 Fit       0.002063
 4036 Fit       0.002583
 4037 Fit       0.002983
 4038 Fit       0.003200
 4039 Fit       0.000649
 4040 Fit       0.000047
 4041 Fit      -0.000309
 4042 Fit      -0.000520
 4043 Fit      -0.001265
 4044 Fit      -0.001318
 4045 Fit      -0.001322
 4046 Fit      -0.001264
 4047 Fit      -0.001144
 4048 Fit      -0.000970
 4049 Fit      -0.000753
 4050 Fit      -0.000505
 4051 Fit      -0.000233
 4052 Fit       0.000065
 4053 Fit       0.000401
 4054 Fit       0.000806
 4055 Fit       0.001327
 4056 Fit       0.001998
 4057 Fit      -0.000484
 4058 Fit      -0.000858
 4059 Fit      -0.001051
 4060 Fit      -0.001176
 4061 Fit      -0.001567
 4062 Fit      -0.001354
 4063 Fit      -0.001119
 4064 Fit      -0.000873
 4065 Fit      -0.000616
 4066 Fit      -0.000342
 4067 Fit      -0.000026
 4068 Fit       0.000386
 4069 Fit       0.000994
 4070 Fit      -0.001348
 4071 Fit      -0.001126
 4072 Fit      -0.000903
 4073 Fit      -0.000650
 4074 Fit      -0.000286
 4075 Fit      -0.001261
 4076 Fit      -0.001231
 4077 Fit      -0.000651
 4078 Fit      -0.000915
 4079 Fit      -0.001335
 4080 Fit      -0.001086
 4081 Fit      -0.000712
 4082 Fit      -0.000576
 4083 Fit      -0.000026
 4084 Fit      -0.000310
 4085 Fit      -0.000735
 4086 Fit      -0.001273
 4087 Fit      -0.000704
 4088 Fit      -0.000200
 4089 Fit       0.000047
 4090 Fit       0.000097
 4091 Fit       0.000556
 4092 Fit       0.000258
 4093 Fit      -0.000160
 4094 Fit      -0.000681
 4095 Fit      -0.001278
 4096 Fit       0.000439
 4097 Fit       0.000672
 4098 Fit       0.000763
 4099 Fit       0.000724
 4100 Fit       0.001056
 4101 Fit       0.000728
 4102 Fit       0.000289
 4103 Fit      -0.000248
 4104 Fit      -0.000859
 4105 Fit      -0.001513
 4106 Fit       0.001418
 4107 Fit       0.001385
 4108 Fit       0.001272
 4109 Fit       0.001452
 4110 Fit       0.001100
 4111 Fit       0.000651
 4112 Fit       0.000115
 4113 Fit      -0.000492
 4114 Fit      -0.001139
 4115 Fit       0.002033
 4116 Fit       0.001890
 4117 Fit       0.001709
 4118 Fit       0.001730
 4119 Fit       0.001350
 4120 Fit       0.000885
 4121 Fit       0.000340
 4122 Fit      -0.000268
 4123 Fit      -0.000911
 4124 Fit      -0.001546
 4125 Fit       0.002502
 4126 Fit       0.002272
 4127 Fit       0.002031
 4128 Fit       0.001890
 4129 Fit       0.001461
 4130 Fit       0.000953
 4131 Fit       0.000371
 4132 Fit      -0.000265
 4133 Fit      -0.000921
 4134 Fit       0.002873
 4135 Fit       0.002558
 4136 Fit       0.002248
 4137 Fit       0.001938
 4138 Fit       0.001443
 4139 Fit       0.000877
 4140 Fit       0.000249
 4141 Fit      -0.000419
 4142 Fit      -0.001081
 4143 Fit       0.003188
 4144 Fit       0.002771
 4145 Fit       0.002372
 4146 Fit       0.001889
 4147 Fit       0.001315
 4148 Fit       0.000693
 4149 Fit       0.000029
 4150 Fit      -0.000650
 4151 Fit      -0.001285
 4152 Fit       0.002961
 4153 Fit       0.002427
 4154 Fit       0.001764
 4155 Fit       0.001038
 4156 Fit       0.000305
 4157 Fit      -0.000433
 4158 Fit      -0.001133
 4159 Fit       0.000627
 4160 Fit      -0.000238
 4161 Fit      -0.001034
 4162 Fit      -0.001395
 4163 Fit      -0.001257
 4164 Fit      -0.001263
 4165 Fit      -0.001446
 4166 Fit      -0.001065
 4167 Fit      -0.000790
 4168 Fit      -0.000637
 4169 Fit      -0.000615
 4170 Fit      -0.000728
 4171 Fit      -0.000983
 4172 Fit      -0.001615
 4173 Fit      -0.001109
 4174 Fit      -0.000666
 4175 Fit      -0.000317
 4176 Fit      -0.000080
 4177 Fit       0.000036
 4178 Fit       0.000024
 4179 Fit      -0.000117
 4180 Fit      -0.000401
 4181 Fit      -0.000877
 4182 Fit      -0.001357
 4183 Fit      -0.000826
 4184 Fit      -0.000341
 4185 Fit       0.000066
 4186 Fit       0.000376
 4187 Fit       0.000579
 4188 Fit       0.000670
 4189 Fit       0.000653
 4190 Fit       0.000531
 4191 Fit       0.000304
 4192 Fit      -0.001061
 4193 Fit      -0.000513
 4194 Fit      -0.000003
 4195 Fit       0.000439
 4196 Fit       0.000791
 4197 Fit       0.001046
 4198 Fit       0.001201
 4199 Fit       0.001264
 4200 Fit       0.001251
 4201 Fit       0.001191
 4202 Fit      -0.001226
 4203 Fit      -0.000653
 4204 Fit      -0.000078
 4205 Fit       0.000451
 4206 Fit       0.000905
 4207 Fit       0.001267
 4208 Fit       0.001531
 4209 Fit       0.001704
 4210 Fit       0.001806
 4211 Fit       0.001878
 4212 Fit      -0.000818
 4213 Fit      -0.000199
 4214 Fit       0.000400
 4215 Fit       0.000937
 4216 Fit       0.001388
 4217 Fit       0.001742
 4218 Fit       0.002004
 4219 Fit       0.002196
 4220 Fit       0.002369
 4221 Fit       0.002635
 4222 Fit      -0.001065
 4223 Fit      -0.000430
 4224 Fit       0.000217
 4225 Fit       0.000824
 4226 Fit       0.001356
 4227 Fit       0.001798
 4228 Fit       0.002149
 4229 Fit       0.002428
 4230 Fit       0.002682
 4231 Fit       0.003013
 4232 Fit      -0.000591
 4233 Fit       0.000136
 4234 Fit       0.000826
 4235 Fit       0.001440
 4236 Fit       0.001957
 4237 Fit       0.002382
 4238 Fit       0.002744
 4239 Fit       0.003112
 4240 Fit      -0.000875
 4241 Fit      -0.000031
 4242 Fit       0.000765
 4243 Fit       0.001478
 4244 Fit       0.002093
 4245 Fit       0.002620
 4246 Fit       0.003105
 4247 Fit       0.001722
 4248 Fit       0.001716
 4249 Fit       0.001307
 4250 Fit       0.001737
 4251 Fit       0.002114
 4252 Fit       0.001991
 4253 Fit       0.001593
 4254 Fit       0.001280
 4255 Fit       0.000776
 4256 Fit       0.001108
 4257 Fit       0.001675
 4258 Fit       0.002244
 4259 Fit       0.002509
 4260 Fit       0.002433
 4261 Fit       0.002129
 4262 Fit       0.001739
 4263 Fit       0.001358
 4264 Fit       0.001029
 4265 Fit       0.000790
 4266 Fit       0.000688
 4267 Fit       0.000152
 4268 Fit       0.000386
 4269 Fit       0.000844
 4270 Fit       0.001557
 4271 Fit       0.002822
 4272 Fit       0.002946
 4273 Fit       0.002830
 4274 Fit       0.002537
 4275 Fit       0.002136
 4276 Fit       0.001724
 4277 Fit       0.001348
 4278 Fit       0.001011
 4279 Fit       0.000709
 4280 Fit       0.000447
 4281 Fit       0.000241
 4282 Fit       0.000109
 4283 Fit       0.000072
 4284 Fit      -0.000522
 4285 Fit      -0.000373
 4286 Fit      -0.000062
 4287 Fit       0.003425
 4288 Fit       0.003192
 4289 Fit       0.002798
 4290 Fit       0.002282
 4291 Fit       0.001772
 4292 Fit       0.001339
 4293 Fit       0.000975
 4294 Fit       0.000658
 4295 Fit       0.000369
 4296 Fit       0.000103
 4297 Fit      -0.000134
 4298 Fit      -0.000333
 4299 Fit      -0.000480
 4300 Fit      -0.000564
 4301 Fit      -0.000579
 4302 Fit      -0.001177
 4303 Fit      -0.001114
 4304 Fit      -0.000984
 4305 Fit       0.002132
 4306 Fit       0.001473
 4307 Fit       0.000983
 4308 Fit       0.000610
 4309 Fit       0.000301
 4310 Fit       0.000021
 4311 Fit      -0.000242
 4312 Fit      -0.000491
 4313 Fit      -0.000719
 4314 Fit      -0.000917
 4315 Fit      -0.001071
 4316 Fit      -0.001171
 4317 Fit      -0.001214
 4318 Fit      -0.001212
 4319 Fit       0.001012
 4320 Fit       0.000479
 4321 Fit       0.000122
 4322 Fit      -0.000159
 4323 Fit      -0.000410
 4324 Fit      -0.000652
 4325 Fit      -0.000890
 4326 Fit      -0.001121
 4327 Fit      -0.001337
 4328 Fit      -0.001526
 4329 Fit      -0.001674
 4330 Fit      -0.000229
 4331 Fit      -0.000523
 4332 Fit      -0.000746
 4333 Fit      -0.000956
 4334 Fit      -0.001171
 4335 Fit      -0.001398
 4336 Fit      -0.001631
 4337 Fit      -0.001111
 4338 Fit      -0.001232
 4339 Fit      -0.001191
 4340 Fit      -0.001280
 4341 Fit      -0.000537
 4342 Fit      -0.000653
 4343 Fit      -0.001026
 4344 Fit      -0.001344
 4345 Fit      -0.000915
 4346 Fit      -0.000634
 4347 Fit       0.000152
 4348 Fit       0.000110
 4349 Fit      -0.000126
 4350 Fit      -0.001204
 4351 Fit      -0.000674
 4352 Fit      -0.000255
 4353 Fit       0.000026
 4354 Fit       0.000807
 4355 Fit       0.000851
 4356 Fit       0.000791
 4357 Fit      -0.001115
 4358 Fit      -0.000532
 4359 Fit      -0.000030
 4360 Fit       0.000367
 4361 Fit       0.000647
 4362 Fit       0.001380
 4363 Fit       0.001508
 4364 Fit       0.001605
 4365 Fit      -0.001296
 4366 Fit      -0.000649
 4367 Fit      -0.000056
 4368 Fit       0.000456
 4369 Fit       0.000868
 4370 Fit       0.001174
 4371 Fit       0.001841
 4372 Fit       0.002040
 4373 Fit       0.002261
 4374 Fit      -0.001537
 4375 Fit      -0.000877
 4376 Fit      -0.000239
 4377 Fit       0.000344
 4378 Fit       0.000850
 4379 Fit       0.001267
 4380 Fit       0.001594
 4381 Fit       0.002173
 4382 Fit       0.002433
 4383 Fit       0.002736
 4384 Fit      -0.001282
 4385 Fit      -0.000631
 4386 Fit       0.000001
 4387 Fit       0.000584
 4388 Fit       0.001097
 4389 Fit       0.001529
 4390 Fit       0.001883
 4391 Fit       0.002376
 4392 Fit       0.002703
 4393 Fit       0.003078
 4394 Fit      -0.001322
 4395 Fit      -0.000671
 4396 Fit      -0.000019
 4397 Fit       0.000595
 4398 Fit       0.001146
 4399 Fit       0.001623
 4400 Fit       0.002028
 4401 Fit       0.002461
 4402 Fit       0.002878
 4403 Fit       0.003344
 4404 Fit      -0.000892
 4405 Fit      -0.000226
 4406 Fit       0.000425
 4407 Fit       0.001026
 4408 Fit       0.001562
 4409 Fit       0.002034
 4410 Fit       0.002452
 4411 Fit       0.003013
 4412 Fit      -0.001159
 4413 Fit      -0.000517
 4414 Fit       0.000146
 4415 Fit       0.000782
 4416 Fit       0.001373
 4417 Fit       0.001922
 4418 Fit      -0.001095
 4419 Fit      -0.000420
 4420 Fit       0.000280
 4421 Fit       0.000967
 4422 Fit       0.001648
 4423 Fit      -0.001105
 4424 Fit      -0.000388
 4425 Fit       0.000379
 4426 Fit      -0.001122
 4427 Fit      -0.000932
 4428 Fit      -0.000876
 4429 Fit      -0.000947
 4430 Fit      -0.001139
 4431 Fit      -0.001441
 4432 Fit      -0.000888
 4433 Fit      -0.000509
 4434 Fit      -0.000299
 4435 Fit      -0.000222
 4436 Fit      -0.000267
 4437 Fit      -0.000431
 4438 Fit      -0.000707
 4439 Fit      -0.001082
 4440 Fit      -0.001534
 4441 Fit      -0.000077
 4442 Fit       0.000202
 4443 Fit       0.000365
 4444 Fit       0.000428
 4445 Fit       0.000389
 4446 Fit       0.000245
 4447 Fit      -0.000004
 4448 Fit      -0.000350
 4449 Fit      -0.000780
 4450 Fit      -0.001269
 4451 Fit       0.000958
 4452 Fit       0.001017
 4453 Fit       0.001050
 4454 Fit       0.001023
 4455 Fit       0.000913
 4456 Fit       0.000710
 4457 Fit       0.000414
 4458 Fit       0.000027
 4459 Fit      -0.000434
 4460 Fit      -0.000945
 4461 Fit      -0.001468
 4462 Fit       0.001741
 4463 Fit       0.001657
 4464 Fit       0.001578
 4465 Fit       0.001448
 4466 Fit       0.001238
 4467 Fit       0.000938
 4468 Fit       0.000546
 4469 Fit       0.000073
 4470 Fit      -0.000459
 4471 Fit      -0.001016
 4472 Fit       0.002333
 4473 Fit       0.002136
 4474 Fit       0.001971
 4475 Fit       0.001764
 4476 Fit       0.001479
 4477 Fit       0.001103
 4478 Fit       0.000637
 4479 Fit       0.000096
 4480 Fit      -0.000490
 4481 Fit      -0.001074
 4482 Fit       0.002732
 4483 Fit       0.002461
 4484 Fit       0.002221
 4485 Fit       0.001938
 4486 Fit       0.001579
 4487 Fit       0.001132
 4488 Fit       0.000602
 4489 Fit       0.000009
 4490 Fit      -0.000609
 4491 Fit      -0.001199
 4492 Fit       0.003343
 4493 Fit       0.002902
 4494 Fit       0.002567
 4495 Fit       0.002225
 4496 Fit       0.001818
 4497 Fit       0.001320
 4498 Fit       0.000733
 4499 Fit       0.000078
 4500 Fit      -0.000606
 4501 Fit      -0.001262
 4502 Fit       0.003416
 4503 Fit       0.002937
 4504 Fit       0.002501
 4505 Fit       0.002025
 4506 Fit       0.001466
 4507 Fit       0.000815
 4508 Fit       0.000088
 4509 Fit      -0.000679
 4510 Fit       0.002476
 4511 Fit       0.001815
 4512 Fit       0.001069
 4513 Fit       0.000231
 -----------------------------------------------------------------
 Leave Link  602 at Thu Nov  2 13:05:39 2023, MaxMem=   134217728 cpu:               0.3 elap:               0.3

 Test job not archived.
 1\1\GINC-LAC-395\FOpt\RHF\6-31G(d)\C5H12\RAHNAMOU\02-Nov-2023\0\\#HF/6
 -31G* SCF=tight Pop=MK iop(6/33=2) iop(6/42=6) opt\\mobley_1261349\\0,
 1\C,-0.6136239922,-0.1246778197,0.8993330501\C,0.2604348926,-0.3499094
 451,2.1409013821\C,1.1847789049,0.8589112184,2.3420860762\C,1.10755880
 29,-1.6152982739,1.9474539513\C,-0.6370933493,-0.5187304531,3.37463897
 41\H,-1.2800787672,-0.9661427987,0.731189422\H,-1.2260266741,0.7662715
 076,1.0074158821\H,-0.0044284248,-0.0015756707,0.0081386533\H,1.817178
 7369,0.7277815009,3.2158097559\H,0.6119913423,1.7715269792,2.481995919
 2\H,1.8335260736,1.003750162,1.4826283755\H,1.7382224793,-1.8008845112
 ,2.8125127119\H,0.4789460709,-2.4895452714,1.8023542984\H,1.7545814745
 ,-1.52495548,1.0792983842\H,-0.0448617089,-0.6802409907,4.2711174819\H
 ,-1.3041039917,-1.3688279729,3.2608701246\H,-1.2500018697,0.3635473194
 ,3.5372555573\\Version=ES64L-G16RevC.01\State=1-A\HF=-196.3338178\RMSD
 =3.740e-09\RMSF=2.715e-05\Dipole=0.0000188,0.0000135,0.0000088\Quadrup
 ole=-0.0000071,0.0002506,-0.0002435,0.000296,-0.0000606,0.0000701\PG=C
 01 [X(C5H12)]\\@


 MEN HAVE BECOME THE TOOLS OF THEIR TOOLS... THOREAU   
 Job cpu time:       0 days  0 hours  0 minutes 13.0 seconds.
 Elapsed time:       0 days  0 hours  0 minutes 12.8 seconds.
 File lengths (MBytes):  RWF=    272 Int=      0 D2E=      0 Chk=     32 Scr=     32
 Normal termination of Gaussian 16 at Thu Nov  2 13:05:40 2023.
