 Entering Gaussian System, Link 0=/opt/software/Gaussian/g16-AVX2-C.01/g16/g16
 Input=mobley_1235151.com
 Output=mobley_1235151.log
 Initial command:
 /opt/software/Gaussian/g16-AVX2-C.01/g16/l1.exe "/mnt/gs21/scratch/rahnamou/Gau-27053.inp" -scrdir="/mnt/gs21/scratch/rahnamou/"
 Entering Link 1 = /opt/software/Gaussian/g16-AVX2-C.01/g16/l1.exe PID=     27063.
  
 Copyright (c) 1988-2019, Gaussian, Inc.  All Rights Reserved.
  
 This is part of the Gaussian(R) 16 program.  It is based on
 the Gaussian(R) 09 system (copyright 2009, Gaussian, Inc.),
 the Gaussian(R) 03 system (copyright 2003, Gaussian, Inc.),
 the Gaussian(R) 98 system (copyright 1998, Gaussian, Inc.),
 the Gaussian(R) 94 system (copyright 1995, Gaussian, Inc.),
 the Gaussian 92(TM) system (copyright 1992, Gaussian, Inc.),
 the Gaussian 90(TM) system (copyright 1990, Gaussian, Inc.),
 the Gaussian 88(TM) system (copyright 1988, Gaussian, Inc.),
 the Gaussian 86(TM) system (copyright 1986, Carnegie Mellon
 University), and the Gaussian 82(TM) system (copyright 1983,
 Carnegie Mellon University). Gaussian is a federally registered
 trademark of Gaussian, Inc.
  
 This software contains proprietary and confidential information,
 including trade secrets, belonging to Gaussian, Inc.
  
 This software is provided under written license and may be
 used, copied, transmitted, or stored only in accord with that
 written license.
  
 The following legend is applicable only to US Government
 contracts under FAR:
  
                    RESTRICTED RIGHTS LEGEND
  
 Use, reproduction and disclosure by the US Government is
 subject to restrictions as set forth in subparagraphs (a)
 and (c) of the Commercial Computer Software - Restricted
 Rights clause in FAR 52.227-19.
  
 Gaussian, Inc.
 340 Quinnipiac St., Bldg. 40, Wallingford CT 06492
  
  
 ---------------------------------------------------------------
 Warning -- This program may not be used in any manner that
 competes with the business of Gaussian, Inc. or will provide
 assistance to any competitor of Gaussian, Inc.  The licensee
 of this program is prohibited from giving any competitor of
 Gaussian, Inc. access to this program.  By using this program,
 the user acknowledges that Gaussian, Inc. is engaged in the
 business of creating and licensing software in the field of
 computational chemistry and represents and warrants to the
 licensee that it is not a competitor of Gaussian, Inc. and that
 it will not use this program in any manner prohibited above.
 ---------------------------------------------------------------
  

 Cite this work as:
 Gaussian 16, Revision C.01,
 M. J. Frisch, G. W. Trucks, H. B. Schlegel, G. E. Scuseria, 
 M. A. Robb, J. R. Cheeseman, G. Scalmani, V. Barone, 
 G. A. Petersson, H. Nakatsuji, X. Li, M. Caricato, A. V. Marenich, 
 J. Bloino, B. G. Janesko, R. Gomperts, B. Mennucci, H. P. Hratchian, 
 J. V. Ortiz, A. F. Izmaylov, J. L. Sonnenberg, D. Williams-Young, 
 F. Ding, F. Lipparini, F. Egidi, J. Goings, B. Peng, A. Petrone, 
 T. Henderson, D. Ranasinghe, V. G. Zakrzewski, J. Gao, N. Rega, 
 G. Zheng, W. Liang, M. Hada, M. Ehara, K. Toyota, R. Fukuda, 
 J. Hasegawa, M. Ishida, T. Nakajima, Y. Honda, O. Kitao, H. Nakai, 
 T. Vreven, K. Throssell, J. A. Montgomery, Jr., J. E. Peralta, 
 F. Ogliaro, M. J. Bearpark, J. J. Heyd, E. N. Brothers, K. N. Kudin, 
 V. N. Staroverov, T. A. Keith, R. Kobayashi, J. Normand, 
 K. Raghavachari, A. P. Rendell, J. C. Burant, S. S. Iyengar, 
 J. Tomasi, M. Cossi, J. M. Millam, M. Klene, C. Adamo, R. Cammi, 
 J. W. Ochterski, R. L. Martin, K. Morokuma, O. Farkas, 
 J. B. Foresman, and D. J. Fox, Gaussian, Inc., Wallingford CT, 2019.
 
 ******************************************
 Gaussian 16:  ES64L-G16RevC.01  3-Jul-2019
                 2-Nov-2023 
 ******************************************
 %chk=mobley_1235151.chk
 %mem=1GB
 %NProcShared=1
 Will use up to    1 processors via shared memory.
 -------------------------------------------------------
 #HF/6-31G* SCF=tight Pop=MK iop(6/33=2) iop(6/42=6) opt
 -------------------------------------------------------
 1/18=20,19=15,38=1/1,3;
 2/9=110,12=2,17=6,18=5,40=1/2;
 3/5=1,6=6,7=1,11=9,25=1,30=1,71=1/1,2,3;
 4//1;
 5/5=2,32=2,38=5/2;
 6/7=2,8=2,9=2,10=2,15=8,20=1,28=1,33=2,42=6/1,2;
 7//1,2,3,16;
 1/18=20,19=15/3(2);
 2/9=110/2;
 99//99;
 2/9=110/2;
 3/5=1,6=6,7=1,11=9,25=1,30=1,71=1/1,2,3;
 4/5=5,16=3,69=1/1;
 5/5=2,32=2,38=5/2;
 7//1,2,3,16;
 1/18=20,19=15/3(-5);
 2/9=110/2;
 6/7=2,8=2,9=2,10=2,15=8,19=2,20=1,28=1,33=2,42=6/1,2;
 99/9=1/99;
 --------------
 mobley_1235151
 --------------
 Symbolic Z-matrix:
 Charge =  0 Multiplicity = 1
 C                     0.074    -0.678     0.857 
 C                     1.344    -0.415     1.651 
 C                     2.593    -0.624     0.795 
 C                     3.869    -0.358     1.597 
 C                     5.108    -0.568     0.738 
 N                     6.302    -0.303     1.545 
 O                     6.807    -1.258     2.167 
 O                     6.739     0.864     1.58 
 H                    -0.806    -0.523     1.488 
 H                     0.       -0.002    -0.001 
 H                     0.05     -1.708     0.486 
 H                     1.371    -1.086     2.518 
 H                     1.322     0.611     2.034 
 H                     2.56      0.045    -0.074 
 H                     2.608    -1.651     0.411 
 H                     3.898    -1.024     2.469 
 H                     3.849     0.668     1.986 
 H                     5.135     0.118    -0.114 
 H                     5.181    -1.598     0.378 
 

 GradGradGradGradGradGradGradGradGradGradGradGradGradGradGradGradGradGrad
 Berny optimization.
 Initialization pass.
                           ----------------------------
                           !    Initial Parameters    !
                           ! (Angstroms and Degrees)  !
 --------------------------                            --------------------------
 ! Name  Definition              Value          Derivative Info.                !
 --------------------------------------------------------------------------------
 ! R1    R(1,2)                  1.5207         estimate D2E/DX2                !
 ! R2    R(1,9)                  1.0939         estimate D2E/DX2                !
 ! R3    R(1,10)                 1.0948         estimate D2E/DX2                !
 ! R4    R(1,11)                 1.095          estimate D2E/DX2                !
 ! R5    R(2,3)                  1.5285         estimate D2E/DX2                !
 ! R6    R(2,12)                 1.0967         estimate D2E/DX2                !
 ! R7    R(2,13)                 1.0954         estimate D2E/DX2                !
 ! R8    R(3,4)                  1.5304         estimate D2E/DX2                !
 ! R9    R(3,14)                 1.0972         estimate D2E/DX2                !
 ! R10   R(3,15)                 1.0965         estimate D2E/DX2                !
 ! R11   R(4,5)                  1.5222         estimate D2E/DX2                !
 ! R12   R(4,16)                 1.0976         estimate D2E/DX2                !
 ! R13   R(4,17)                 1.0975         estimate D2E/DX2                !
 ! R14   R(5,6)                  1.4653         estimate D2E/DX2                !
 ! R15   R(5,18)                 1.0942         estimate D2E/DX2                !
 ! R16   R(5,19)                 1.0935         estimate D2E/DX2                !
 ! R17   R(6,7)                  1.2466         estimate D2E/DX2                !
 ! R18   R(6,8)                  1.2466         estimate D2E/DX2                !
 ! A1    A(2,1,9)              110.2525         estimate D2E/DX2                !
 ! A2    A(2,1,10)             111.0297         estimate D2E/DX2                !
 ! A3    A(2,1,11)             110.9698         estimate D2E/DX2                !
 ! A4    A(9,1,10)             108.0714         estimate D2E/DX2                !
 ! A5    A(9,1,11)             108.1245         estimate D2E/DX2                !
 ! A6    A(10,1,11)            108.2875         estimate D2E/DX2                !
 ! A7    A(1,2,3)              111.4918         estimate D2E/DX2                !
 ! A8    A(1,2,12)             109.1189         estimate D2E/DX2                !
 ! A9    A(1,2,13)             109.1343         estimate D2E/DX2                !
 ! A10   A(3,2,12)             109.8135         estimate D2E/DX2                !
 ! A11   A(3,2,13)             109.8947         estimate D2E/DX2                !
 ! A12   A(12,2,13)            107.2878         estimate D2E/DX2                !
 ! A13   A(2,3,4)              111.3493         estimate D2E/DX2                !
 ! A14   A(2,3,14)             109.6089         estimate D2E/DX2                !
 ! A15   A(2,3,15)             109.5938         estimate D2E/DX2                !
 ! A16   A(4,3,14)             109.5212         estimate D2E/DX2                !
 ! A17   A(4,3,15)             109.5663         estimate D2E/DX2                !
 ! A18   A(14,3,15)            107.1049         estimate D2E/DX2                !
 ! A19   A(3,4,5)              111.0352         estimate D2E/DX2                !
 ! A20   A(3,4,16)             109.4443         estimate D2E/DX2                !
 ! A21   A(3,4,17)             109.4541         estimate D2E/DX2                !
 ! A22   A(5,4,16)             110.066          estimate D2E/DX2                !
 ! A23   A(5,4,17)             110.1107         estimate D2E/DX2                !
 ! A24   A(16,4,17)            106.6273         estimate D2E/DX2                !
 ! A25   A(4,5,6)              109.1176         estimate D2E/DX2                !
 ! A26   A(4,5,18)             111.901          estimate D2E/DX2                !
 ! A27   A(4,5,19)             111.7189         estimate D2E/DX2                !
 ! A28   A(6,5,18)             107.1785         estimate D2E/DX2                !
 ! A29   A(6,5,19)             107.2927         estimate D2E/DX2                !
 ! A30   A(18,5,19)            109.4228         estimate D2E/DX2                !
 ! A31   A(5,6,7)              117.7981         estimate D2E/DX2                !
 ! A32   A(5,6,8)              118.0604         estimate D2E/DX2                !
 ! A33   A(7,6,8)              124.1353         estimate D2E/DX2                !
 ! D1    D(9,1,2,3)            179.988          estimate D2E/DX2                !
 ! D2    D(9,1,2,12)            58.5184         estimate D2E/DX2                !
 ! D3    D(9,1,2,13)           -58.4299         estimate D2E/DX2                !
 ! D4    D(10,1,2,3)           -60.2702         estimate D2E/DX2                !
 ! D5    D(10,1,2,12)          178.2601         estimate D2E/DX2                !
 ! D6    D(10,1,2,13)           61.3119         estimate D2E/DX2                !
 ! D7    D(11,1,2,3)            60.2185         estimate D2E/DX2                !
 ! D8    D(11,1,2,12)          -61.2512         estimate D2E/DX2                !
 ! D9    D(11,1,2,13)         -178.1994         estimate D2E/DX2                !
 ! D10   D(1,2,3,4)            179.979          estimate D2E/DX2                !
 ! D11   D(1,2,3,14)            58.639          estimate D2E/DX2                !
 ! D12   D(1,2,3,15)           -58.6344         estimate D2E/DX2                !
 ! D13   D(12,2,3,4)           -58.9556         estimate D2E/DX2                !
 ! D14   D(12,2,3,14)          179.7044         estimate D2E/DX2                !
 ! D15   D(12,2,3,15)           62.431          estimate D2E/DX2                !
 ! D16   D(13,2,3,4)            58.8391         estimate D2E/DX2                !
 ! D17   D(13,2,3,14)          -62.501          estimate D2E/DX2                !
 ! D18   D(13,2,3,15)         -179.7744         estimate D2E/DX2                !
 ! D19   D(2,3,4,5)           -179.9944         estimate D2E/DX2                !
 ! D20   D(2,3,4,16)            58.2973         estimate D2E/DX2                !
 ! D21   D(2,3,4,17)           -58.2234         estimate D2E/DX2                !
 ! D22   D(14,3,4,5)           -58.6032         estimate D2E/DX2                !
 ! D23   D(14,3,4,16)          179.6885         estimate D2E/DX2                !
 ! D24   D(14,3,4,17)           63.1678         estimate D2E/DX2                !
 ! D25   D(15,3,4,5)            58.603          estimate D2E/DX2                !
 ! D26   D(15,3,4,16)          -63.1053         estimate D2E/DX2                !
 ! D27   D(15,3,4,17)         -179.626          estimate D2E/DX2                !
 ! D28   D(3,4,5,6)           -179.9971         estimate D2E/DX2                !
 ! D29   D(3,4,5,18)            61.5619         estimate D2E/DX2                !
 ! D30   D(3,4,5,19)           -61.526          estimate D2E/DX2                !
 ! D31   D(16,4,5,6)           -58.6528         estimate D2E/DX2                !
 ! D32   D(16,4,5,18)         -177.0938         estimate D2E/DX2                !
 ! D33   D(16,4,5,19)           59.8183         estimate D2E/DX2                !
 ! D34   D(17,4,5,6)            58.6161         estimate D2E/DX2                !
 ! D35   D(17,4,5,18)          -59.825          estimate D2E/DX2                !
 ! D36   D(17,4,5,19)          177.0872         estimate D2E/DX2                !
 ! D37   D(4,5,6,7)             90.0768         estimate D2E/DX2                !
 ! D38   D(4,5,6,8)            -89.057          estimate D2E/DX2                !
 ! D39   D(18,5,6,7)          -148.5664         estimate D2E/DX2                !
 ! D40   D(18,5,6,8)            32.2998         estimate D2E/DX2                !
 ! D41   D(19,5,6,7)           -31.1287         estimate D2E/DX2                !
 ! D42   D(19,5,6,8)           149.7376         estimate D2E/DX2                !
 --------------------------------------------------------------------------------
 Trust Radius=3.00D-01 FncErr=1.00D-07 GrdErr=1.00D-07 EigMax=2.50D+02 EigMin=1.00D-04
 Number of steps in this run=    103 maximum allowed number of steps=    114.
 GradGradGradGradGradGradGradGradGradGradGradGradGradGradGradGradGradGrad

                          Input orientation:                          
 ---------------------------------------------------------------------
 Center     Atomic      Atomic             Coordinates (Angstroms)
 Number     Number       Type             X           Y           Z
 ---------------------------------------------------------------------
      1          6           0        0.074000   -0.678000    0.857000
      2          6           0        1.344000   -0.415000    1.651000
      3          6           0        2.593000   -0.624000    0.795000
      4          6           0        3.869000   -0.358000    1.597000
      5          6           0        5.108000   -0.568000    0.738000
      6          7           0        6.302000   -0.303000    1.545000
      7          8           0        6.807000   -1.258000    2.167000
      8          8           0        6.739000    0.864000    1.580000
      9          1           0       -0.806000   -0.523000    1.488000
     10          1           0        0.000000   -0.002000   -0.001000
     11          1           0        0.050000   -1.708000    0.486000
     12          1           0        1.371000   -1.086000    2.518000
     13          1           0        1.322000    0.611000    2.034000
     14          1           0        2.560000    0.045000   -0.074000
     15          1           0        2.608000   -1.651000    0.411000
     16          1           0        3.898000   -1.024000    2.469000
     17          1           0        3.849000    0.668000    1.986000
     18          1           0        5.135000    0.118000   -0.114000
     19          1           0        5.181000   -1.598000    0.378000
 ---------------------------------------------------------------------
                    Distance matrix (angstroms):
                    1          2          3          4          5
     1  C    0.000000
     2  C    1.520692   0.000000
     3  C    2.520341   1.528535   0.000000
     4  C    3.879694   2.526220   1.530404   0.000000
     5  C    5.036608   3.876167   2.516269   1.522203   0.000000
     6  N    6.277097   4.960398   3.797660   2.434177   1.465302
     7  O    6.883734   5.551691   4.476844   3.125179   2.324810
     8  O    6.879151   5.544989   4.474336   3.119371   2.328035
     9  H    1.093886   2.158873   3.470396   4.679181   5.961537
    10  H    1.094813   2.169334   2.782831   4.201131   5.192123
    11  H    1.095042   2.168758   2.781616   4.200188   5.190999
    12  H    2.146531   1.096658   2.162281   2.760114   4.171558
    13  H    2.145776   1.095376   2.162357   2.759916   4.171745
    14  H    2.751306   2.160065   1.097183   2.160586   2.743614
    15  H    2.750782   2.159396   1.096545   2.160686   2.744051
    16  H    4.164281   2.750077   2.159931   1.097625   2.160647
    17  H    4.163770   2.749571   2.159926   1.097450   2.161083
    18  H    5.214420   4.215566   2.799752   2.181021   1.094180
    19  H    5.211266   4.212195   2.796482   2.178280   1.093540
                    6          7          8          9         10
     6  N    0.000000
     7  O    1.246569   0.000000
     8  O    1.246629   2.202743   0.000000
     9  H    7.111632   7.678479   7.671979   0.000000
    10  H    6.495839   7.253483   6.975933   1.771496   0.000000
    11  H    6.494845   6.977486   7.249465   1.772277   1.774854
    12  H    5.086706   5.450035   5.787726   2.473297   3.065951
    13  H    5.086739   5.796212   5.441876   2.472338   2.502934
    14  H    4.092045   4.975631   4.568426   3.753988   2.561472
    15  H    4.092517   4.568324   4.975635   3.753360   3.112974
    16  H    2.674478   2.933980   3.525074   4.831250   4.726498
    17  H    2.674796   3.534402   2.924953   4.830684   4.383135
    18  H    2.071572   3.145142   2.449279   6.186499   5.137645
    19  H    2.072572   2.441311   3.151763   6.183194   5.434484
                   11         12         13         14         15
    11  H    0.000000
    12  H    2.502189   0.000000
    13  H    3.064645   1.765352   0.000000
    14  H    3.112348   3.067792   2.509315   0.000000
    15  H    2.559734   2.507757   3.066687   1.764637   0.000000
    16  H    4.382608   2.528235   3.081919   3.065918   2.508504
    17  H    4.725228   3.082211   2.528098   2.508635   3.065692
    18  H    5.436129   4.748130   4.404080   2.576345   3.129012
    19  H    5.133315   4.399755   4.744881   3.126243   2.573757
                   16         17         18         19
    16  H    0.000000
    17  H    1.760271   0.000000
    18  H    3.083216   2.523152   0.000000
    19  H    2.519493   3.081338   1.785731   0.000000
 Stoichiometry    C5H11NO2
 Framework group  C1[X(C5H11NO2)]
 Deg. of freedom    51
 Full point group                 C1      NOp   1
 Largest Abelian subgroup         C1      NOp   1
 Largest concise Abelian subgroup C1      NOp   1
                         Standard orientation:                         
 ---------------------------------------------------------------------
 Center     Atomic      Atomic             Coordinates (Angstroms)
 Number     Number       Type             X           Y           Z
 ---------------------------------------------------------------------
      1          6           0        3.956717   -0.002774    0.097360
      2          6           0        2.600593    0.013583   -0.590511
      3          6           0        1.457664   -0.010320    0.424161
      4          6           0        0.094607    0.006744   -0.271484
      5          6           0       -1.038031   -0.017071    0.745209
      6          7           0       -2.320079    0.000221    0.035869
      7          8           0       -2.829797   -1.095347   -0.270487
      8          8           0       -2.824031    1.107144   -0.237691
      9          1           0        4.758745    0.014533   -0.646305
     10          1           0        4.077844    0.869474    0.747843
     11          1           0        4.076334   -0.904896    0.706445
     12          1           0        2.524966   -0.854689   -1.256126
     13          1           0        2.525693    0.910190   -1.215279
     14          1           0        1.539565    0.856701    1.091527
     15          1           0        1.539675   -0.907432    1.049359
     16          1           0        0.016207   -0.858011   -0.942925
     17          1           0        0.017118    0.901780   -0.901805
     18          1           0       -1.018401    0.860315    1.398690
     19          1           0       -1.015870   -0.924867    1.354507
 ---------------------------------------------------------------------
 Rotational constants (GHZ):           6.7217289           0.6828722           0.6664657
 Standard basis: 6-31G(d) (6D, 7F)
 There are   142 symmetry adapted cartesian basis functions of A   symmetry.
 There are   142 symmetry adapted basis functions of A   symmetry.
   142 basis functions,   268 primitive gaussians,   142 cartesian basis functions
    32 alpha electrons       32 beta electrons
       nuclear repulsion energy       377.1997729720 Hartrees.
 NAtoms=   19 NActive=   19 NUniq=   19 SFac= 1.00D+00 NAtFMM=   60 NAOKFM=F Big=F
 Integral buffers will be    131072 words long.
 Raffenetti 1 integral format.
 Two-electron integral symmetry is turned on.
 One-electron integrals computed using PRISM.
 NBasis=   142 RedAO= T EigKep=  2.80D-03  NBF=   142
 NBsUse=   142 1.00D-06 EigRej= -1.00D+00 NBFU=   142
 ExpMin= 1.61D-01 ExpMax= 5.48D+03 ExpMxC= 8.25D+02 IAcc=3 IRadAn=         5 AccDes= 0.00D+00
 Harris functional with IExCor=  205 and IRadAn=       5 diagonalized for initial guess.
 HarFok:  IExCor=  205 AccDes= 0.00D+00 IRadAn=         5 IDoV= 1 UseB2=F ITyADJ=14
 ICtDFT=  3500011 ScaDFX=  1.000000  1.000000  1.000000  1.000000
 FoFCou: FMM=F IPFlag=           0 FMFlag=      100000 FMFlg1=           0
         NFxFlg=           0 DoJE=T BraDBF=F KetDBF=T FulRan=T
         wScrn=  0.000000 ICntrl=       500 IOpCl=  0 I1Cent=   200000004 NGrid=           0
         NMat0=    1 NMatS0=      1 NMatT0=    0 NMatD0=    1 NMtDS0=    0 NMtDT0=    0
 Petite list used in FoFCou.
 Keep R1 ints in memory in canonical form, NReq=53010382.
 Requested convergence on RMS density matrix=1.00D-08 within 128 cycles.
 Requested convergence on MAX density matrix=1.00D-06.
 Requested convergence on             energy=1.00D-06.
 No special actions if energy rises.
 SCF Done:  E(RHF) =  -399.794866139     A.U. after   15 cycles
            NFock= 15  Conv=0.46D-08     -V/T= 2.0026
 SCF density gives NOpUse=  1 NOpAll=  1.

 **********************************************************************

            Population analysis using the SCF Density.

 **********************************************************************

 Orbital symmetries:
 BldTbl:  Degeneracy threshold= 1.00D-02
       Occupied  (A) (A) (A) (A) (A) (A) (A) (A) (A) (A) (A) (A)
                 (A) (A) (A) (A) (A) (A) (A) (A) (A) (A) (A) (A)
                 (A) (A) (A) (A) (A) (A) (A) (A)
       Virtual   (A) (A) (A) (A) (A) (A) (A) (A) (A) (A) (A) (A)
                 (A) (A) (A) (A) (A) (A) (A) (A) (A) (A) (A) (A)
                 (A) (A) (A) (A) (A) (A) (A) (A) (A) (A) (A) (A)
                 (A) (A) (A) (A) (A) (A) (A) (A) (A) (A) (A) (A)
                 (A) (A) (A) (A) (A) (A) (A) (A) (A) (A) (A) (A)
                 (A) (A) (A) (A) (A) (A) (A) (A) (A) (A) (A) (A)
                 (A) (A) (A) (A) (A) (A) (A) (A) (A) (A) (A) (A)
                 (A) (A) (A) (A) (A) (A) (A) (A) (A) (A) (A) (A)
                 (A) (A) (A) (A) (A) (A) (A) (A) (A) (A) (A) (A)
                 (A) (A)
 The electronic state is 1-A.
 Alpha  occ. eigenvalues --  -20.60788 -20.60782 -15.84888 -11.30645 -11.25802
 Alpha  occ. eigenvalues --  -11.24585 -11.23656 -11.22541  -1.58045  -1.37726
 Alpha  occ. eigenvalues --   -1.14350  -1.08229  -0.99744  -0.89145  -0.83403
 Alpha  occ. eigenvalues --   -0.81495  -0.73998  -0.72571  -0.69824  -0.67702
 Alpha  occ. eigenvalues --   -0.62934  -0.60101  -0.58345  -0.56710  -0.53700
 Alpha  occ. eigenvalues --   -0.51290  -0.50322  -0.49286  -0.48719  -0.48113
 Alpha  occ. eigenvalues --   -0.46759  -0.43946
 Alpha virt. eigenvalues --    0.09077   0.20843   0.23831   0.24127   0.25249
 Alpha virt. eigenvalues --    0.27902   0.29155   0.30360   0.31043   0.32337
 Alpha virt. eigenvalues --    0.33423   0.33848   0.33873   0.37500   0.40948
 Alpha virt. eigenvalues --    0.42866   0.45063   0.50941   0.56256   0.66124
 Alpha virt. eigenvalues --    0.69006   0.72546   0.73233   0.74128   0.77351
 Alpha virt. eigenvalues --    0.78776   0.80098   0.87755   0.89964   0.90670
 Alpha virt. eigenvalues --    0.94000   0.96038   1.00643   1.01609   1.05542
 Alpha virt. eigenvalues --    1.05955   1.09317   1.09722   1.09769   1.12684
 Alpha virt. eigenvalues --    1.14552   1.15228   1.15250   1.16800   1.18080
 Alpha virt. eigenvalues --    1.19237   1.19646   1.21208   1.21505   1.23994
 Alpha virt. eigenvalues --    1.25303   1.28170   1.31001   1.31309   1.45059
 Alpha virt. eigenvalues --    1.48331   1.50055   1.59471   1.61653   1.65798
 Alpha virt. eigenvalues --    1.67701   1.72026   1.73588   1.83238   1.83764
 Alpha virt. eigenvalues --    1.90424   2.02686   2.06707   2.07189   2.10605
 Alpha virt. eigenvalues --    2.12937   2.14877   2.19121   2.19977   2.20225
 Alpha virt. eigenvalues --    2.23690   2.26239   2.28391   2.31357   2.33208
 Alpha virt. eigenvalues --    2.34000   2.38157   2.38844   2.49520   2.51907
 Alpha virt. eigenvalues --    2.57475   2.58281   2.62984   2.69852   2.71869
 Alpha virt. eigenvalues --    2.74370   2.75544   2.88670   2.89918   2.91774
 Alpha virt. eigenvalues --    2.99753   3.06588   3.13435   3.16068   3.21961
 Alpha virt. eigenvalues --    3.23090   3.39207   4.07863   4.16893   4.27363
 Alpha virt. eigenvalues --    4.55842   4.64917   4.74038   4.84473   4.98112
          Condensed to atoms (all electrons):
               1          2          3          4          5          6
     1  C    5.100379   0.340161  -0.061277   0.004501  -0.000097   0.000000
     2  C    0.340161   5.062373   0.347739  -0.053600   0.004228  -0.000060
     3  C   -0.061277   0.347739   5.110753   0.337598  -0.051216   0.002772
     4  C    0.004501  -0.053600   0.337598   5.147982   0.318204  -0.044114
     5  C   -0.000097   0.004228  -0.051216   0.318204   5.126927   0.201200
     6  N    0.000000  -0.000060   0.002772  -0.044114   0.201200   5.822958
     7  O   -0.000000   0.000001  -0.000056  -0.001464  -0.064896   0.290134
     8  O   -0.000000   0.000001  -0.000053  -0.001335  -0.064670   0.289947
     9  H    0.395749  -0.037991   0.004923  -0.000102   0.000001  -0.000000
    10  H    0.392239  -0.038862  -0.004414  -0.000062   0.000000   0.000000
    11  H    0.392244  -0.038944  -0.004413  -0.000062   0.000000   0.000000
    12  H   -0.039767   0.401600  -0.042852  -0.003506  -0.000051   0.000000
    13  H   -0.039765   0.401628  -0.042735  -0.003484  -0.000051   0.000000
    14  H   -0.002755  -0.038160   0.397342  -0.042790  -0.002967  -0.000066
    15  H   -0.002754  -0.038161   0.397315  -0.042675  -0.002954  -0.000065
    16  H   -0.000037  -0.003020  -0.034735   0.396400  -0.040379  -0.002124
    17  H   -0.000036  -0.003034  -0.034676   0.396428  -0.040308  -0.002109
    18  H   -0.000002  -0.000038  -0.002077  -0.030428   0.388606  -0.035347
    19  H   -0.000002  -0.000039  -0.002075  -0.030595   0.388777  -0.035118
               7          8          9         10         11         12
     1  C   -0.000000  -0.000000   0.395749   0.392239   0.392244  -0.039767
     2  C    0.000001   0.000001  -0.037991  -0.038862  -0.038944   0.401600
     3  C   -0.000056  -0.000053   0.004923  -0.004414  -0.004413  -0.042852
     4  C   -0.001464  -0.001335  -0.000102  -0.000062  -0.000062  -0.003506
     5  C   -0.064896  -0.064670   0.000001   0.000000   0.000000  -0.000051
     6  N    0.290134   0.289947  -0.000000   0.000000   0.000000   0.000000
     7  O    8.298736  -0.080578   0.000000  -0.000000   0.000000  -0.000001
     8  O   -0.080578   8.299045   0.000000   0.000000  -0.000000   0.000000
     9  H    0.000000   0.000000   0.527750  -0.026365  -0.026265  -0.002748
    10  H   -0.000000   0.000000  -0.026365   0.542754  -0.028467   0.004195
    11  H    0.000000  -0.000000  -0.026265  -0.028467   0.542838  -0.002909
    12  H   -0.000001   0.000000  -0.002748   0.004195  -0.002909   0.548473
    13  H    0.000000  -0.000001  -0.002743  -0.002892   0.004201  -0.029518
    14  H   -0.000004   0.000008  -0.000056   0.002448   0.000186   0.004134
    15  H    0.000008  -0.000004  -0.000056   0.000186   0.002452  -0.002582
    16  H    0.002896   0.000251  -0.000000  -0.000002   0.000014   0.001903
    17  H    0.000253   0.002954  -0.000000   0.000014  -0.000002   0.000292
    18  H    0.002825   0.004343   0.000000  -0.000001   0.000000  -0.000005
    19  H    0.004374   0.002812   0.000000   0.000000  -0.000002   0.000017
              13         14         15         16         17         18
     1  C   -0.039765  -0.002755  -0.002754  -0.000037  -0.000036  -0.000002
     2  C    0.401628  -0.038160  -0.038161  -0.003020  -0.003034  -0.000038
     3  C   -0.042735   0.397342   0.397315  -0.034735  -0.034676  -0.002077
     4  C   -0.003484  -0.042790  -0.042675   0.396400   0.396428  -0.030428
     5  C   -0.000051  -0.002967  -0.002954  -0.040379  -0.040308   0.388606
     6  N    0.000000  -0.000066  -0.000065  -0.002124  -0.002109  -0.035347
     7  O    0.000000  -0.000004   0.000008   0.002896   0.000253   0.002825
     8  O   -0.000001   0.000008  -0.000004   0.000251   0.002954   0.004343
     9  H   -0.002743  -0.000056  -0.000056  -0.000000  -0.000000   0.000000
    10  H   -0.002892   0.002448   0.000186  -0.000002   0.000014  -0.000001
    11  H    0.004201   0.000186   0.002452   0.000014  -0.000002   0.000000
    12  H   -0.029518   0.004134  -0.002582   0.001903   0.000292  -0.000005
    13  H    0.547836  -0.002561   0.004131   0.000293   0.001898   0.000017
    14  H   -0.002561   0.547581  -0.030064   0.003748  -0.002215   0.001473
    15  H    0.004131  -0.030064   0.547332  -0.002215   0.003742   0.000320
    16  H    0.000293   0.003748  -0.002215   0.499830  -0.025373   0.003251
    17  H    0.001898  -0.002215   0.003742  -0.025373   0.499264  -0.001937
    18  H    0.000017   0.001473   0.000320   0.003251  -0.001937   0.463138
    19  H   -0.000005   0.000322   0.001483  -0.001951   0.003250  -0.022645
              19
     1  C   -0.000002
     2  C   -0.000039
     3  C   -0.002075
     4  C   -0.030595
     5  C    0.388777
     6  N   -0.035118
     7  O    0.004374
     8  O    0.002812
     9  H    0.000000
    10  H    0.000000
    11  H   -0.000002
    12  H    0.000017
    13  H   -0.000005
    14  H    0.000322
    15  H    0.001483
    16  H   -0.001951
    17  H    0.003250
    18  H   -0.022645
    19  H    0.462353
 Mulliken charges:
               1
     1  C   -0.478784
     2  C   -0.305822
     3  C   -0.317865
     4  C   -0.346896
     5  C   -0.160355
     6  N    0.511989
     7  O   -0.452228
     8  O   -0.452721
     9  H    0.167905
    10  H    0.159228
    11  H    0.159128
    12  H    0.163324
    13  H    0.163750
    14  H    0.164396
    15  H    0.164560
    16  H    0.201249
    17  H    0.201595
    18  H    0.228506
    19  H    0.229042
 Sum of Mulliken charges =  -0.00000
 Mulliken charges with hydrogens summed into heavy atoms:
               1
     1  C    0.007476
     2  C    0.021252
     3  C    0.011092
     4  C    0.055948
     5  C    0.297193
     6  N    0.511989
     7  O   -0.452228
     8  O   -0.452721
 DipInt: DoE/N= T F RetVal/Mat= T F Init=T NMatP=  1 IDeriv=0 Min/MaxMlt=  0  4
 Entering OneElI...
 OneElI was handed   134163529 working-precision words.
 Multipole integrals L=0 to 4 MinM= 0 MaxM= 0.
 Requested accuracy = 0.1000D-12
 ShPair: Thresh= 1.00D-13 NBox=     0 BxSize= 0.00D+00 RnKept= 1.45D+01
         NSMCal=                 1485 NSMKep=                1359
 PrmmSu-InSpLW:  IPartL=    0 NPrtUS=    1 NPrtUL=    1 DoSpLW=F IThBeg=    0 IThEnd=    0 NThAct=    1.
 PrSmSu:  IncTry=   512 NBBP=           1359 NTPThr=   100 NPartT=    1 Incr=          13 LDynOK=F GPUOK=F.
 PrsmSu:  NPrtUS=   1 ThrOK=F IAlg=2 LenDen=           0 ISkipM=0 DoSpLW=F IThBeg=    0 IThEnd=    0.
 Prism:   IPart=     0 DynPar=F LinDyn=F Incr=          13.
 PRISM was handed   134044602 working-precision words and  1359 shell-pairs
 IPart=  0 NShTot=        1359 NBatch=          38 AvBLen=        35.8
 PrsmSu-ThDecC:  IPartSL=    0    0 NPrtUSL=    1    1 IThBeg=    0 IThEnd=    0 CPU=   -1 GPU=   -1 NThAct=    1.
 PrSmSu:  NxtVal=             14.
 Electronic moments (au):
        -64.00000000          1.74816589         -0.01526597          0.68259552
      -1457.93280304       -136.65801974       -108.44177222          0.06659972
         -3.39119746         -0.05509540      -2131.34094843         -1.63677682
        -27.56326082        300.55647759         -3.12002796        240.90752092
       -112.87942327          1.18075588         24.31458316          6.47347620
     -58553.12572612       -810.86876927       -623.54229181          9.42284144
       -864.25473422         12.26956093          2.48311975        174.49104723
         -2.33771351      -3491.58511667      -1971.37106154       -256.31634464
        -18.89486227       -181.07262378         -9.20040440
 Electronic spatial extent (au):  <R**2>=           1703.0326
 DipInt: DoE/N= F T RetVal/Mat= T F Init=T NMatP=  1 IDeriv=0 Min/MaxMlt=  0  4
 Nuclear    moments (au):
         64.00000000         -0.00000000         -0.00000000          0.00000000
       1409.77874920         97.29186297         72.72782422         -0.00000000
          0.00000000         -0.00000000       2165.60359704          1.47306429
         28.04028761       -294.85115998          3.03767367       -229.76021128
         98.44429069         -1.09894787        -22.10330117         -6.17964195
      53099.94547502        378.71562661        249.44061214         -7.58677281
        758.80888887        -12.06280956         -3.12820352       -173.40326381
          3.44339348       2506.43016126       1085.98124378        134.91901831
         17.62353176        179.02192674          9.19901802
 Total      moments (au):
         -0.00000000          1.74816589         -0.01526597          0.68259552
        -48.15405384        -39.36615677        -35.71394800          0.06659972
         -3.39119746         -0.05509540         34.26264861         -0.16371253
          0.47702679          5.70531761         -0.08235430         11.14730964
        -14.43513258          0.08180801          2.21128199          0.29383425
      -5453.18025110       -432.15314266       -374.10167967          1.83606863
       -105.44584536          0.20675137         -0.64508377          1.08778343
          1.10567998       -985.15495542       -885.38981776       -121.39732634
         -1.27133051         -2.05069704         -0.00138638
 Traceless Quadrup. (au):
         -7.07600097          1.71189610          5.36410487          0.06659972
         -3.39119746         -0.05509540
 Charge=             -0.0000 electrons
 Dipole moment (field-independent basis, Debye):
    X=              4.4434    Y=             -0.0388    Z=              1.7350  Tot=              4.7703
 Quadrupole moment (field-independent basis, Debye-Ang):
   XX=            -64.7689   YY=            -52.9488   ZZ=            -48.0365
   XY=              0.0896   XZ=             -4.5613   YZ=             -0.0741
 Traceless Quadrupole moment (field-independent basis, Debye-Ang):
   XX=             -9.5175   YY=              2.3026   ZZ=              7.2149
   XY=              0.0896   XZ=             -4.5613   YZ=             -0.0741
 Octapole moment (field-independent basis, Debye-Ang**2):
  XXX=             24.3868  YYY=             -0.1165  ZZZ=              0.3395  XYY=              4.0608
  XXY=             -0.0586  XXZ=              7.9342  XZZ=            -10.2744  YZZ=              0.0582
  YYZ=              1.5739  XYZ=              0.2091
 Hexadecapole moment (field-independent basis, Debye-Ang**3):
 XXXX=          -2053.9292 YYYY=           -162.7696 ZZZZ=           -140.9046 XXXY=              0.6916
 XXXZ=            -39.7160 YYYX=              0.0779 YYYZ=             -0.2430 ZZZX=              0.4097
 ZZZY=              0.4165 XXYY=           -371.0566 XXZZ=           -333.4803 YYZZ=            -45.7241
 XXYZ=             -0.4788 YYXZ=             -0.7724 ZZXY=             -0.0005
 N-N= 3.771997729720D+02 E-N=-1.690329556522D+03  KE= 3.987431265466D+02
 Entering OneElI...
 OneElI was handed   134173046 working-precision words.
 Calculate electrostatic properties
    NBasis =   142  MinDer = 0  MaxDer = 0
    NGrid  =    19  NMatD  =   1
 Requested accuracy = 0.1000D-12
 ShPair: Thresh= 1.00D-13 NBox=     0 BxSize= 0.00D+00 RnKept= 1.45D+01
         NSMCal=                 1485 NSMKep=                1278
 PrmmSu-InSpLW:  IPartL=    0 NPrtUS=    1 NPrtUL=    1 DoSpLW=F IThBeg=    0 IThEnd=    0 NThAct=    1.
 PrSmSu:  IncTry=   512 NBBP=          24282 NTPThr=   100 NPartT=    1 Incr=         242 LDynOK=F GPUOK=F.
 PrsmSu:  NPrtUS=   1 ThrOK=F IAlg=2 LenDen=           0 ISkipM=0 DoSpLW=F IThBeg=    0 IThEnd=    0.
 Prism:   IPart=     0 DynPar=F LinDyn=F Incr=         242.
 PRISM was handed   134061427 working-precision words and  1278 shell-pairs
 IPart=  0 NShTot=       24282 NBatch=        1278 AvBLen=        19.0
 PrsmSu-ThDecC:  IPartSL=    0    0 NPrtUSL=    1    1 IThBeg=    0 IThEnd=    0 CPU=   -1 GPU=   -1 NThAct=    1.
 PrSmSu:  NxtVal=            243.
 --------------------------------------------------------
       Center         ----      EFG at Nuclei      ----
                      3XX-RR        3YY-RR        3ZZ-RR
 --------------------------------------------------------
     1   Atom       -0.006337      0.007431     -0.001094
     2   Atom       -0.011068      0.026161     -0.015093
     3   Atom       -0.020327      0.024543     -0.004216
     4   Atom       -0.043024      0.074853     -0.031829
     5   Atom       -0.248384      0.222817      0.025567
     6   Atom        0.252567      0.146839     -0.399406
     7   Atom        1.013834     -1.064792      0.050958
     8   Atom        1.027120     -1.136592      0.109472
     9   Atom       -0.094520      0.153428     -0.058908
    10   Atom        0.140049     -0.133755     -0.006294
    11   Atom        0.139956     -0.153284      0.013328
    12   Atom        0.138177     -0.126032     -0.012146
    13   Atom        0.139258     -0.146117      0.006858
    14   Atom        0.135751     -0.124088     -0.011663
    15   Atom        0.136253     -0.144338      0.008085
    16   Atom        0.133564     -0.121133     -0.012431
    17   Atom        0.133799     -0.140408      0.006608
    18   Atom        0.130110     -0.125872     -0.004238
    19   Atom        0.130579     -0.146305      0.015727
 --------------------------------------------------------
                        XY            XZ            YZ
 --------------------------------------------------------
     1   Atom        0.000347     -0.015339      0.000348
     2   Atom       -0.000583      0.019140      0.000166
     3   Atom        0.000770     -0.035218      0.000326
     4   Atom       -0.002031      0.085802      0.002038
     5   Atom        0.007084     -0.267283      0.003950
     6   Atom       -0.008812      0.564802      0.006509
     7   Atom       -1.623580      0.888207     -0.942784
     8   Atom        1.587561      0.934029      0.903415
     9   Atom       -0.005134      0.221741      0.004921
    10   Atom       -0.036850     -0.031006     -0.212882
    11   Atom        0.037763     -0.028914      0.205759
    12   Atom       -0.025950     -0.017538     -0.211229
    13   Atom        0.026741     -0.016356      0.206715
    14   Atom       -0.025177     -0.018501     -0.211126
    15   Atom        0.026146     -0.017359      0.205607
    16   Atom       -0.024527     -0.014279     -0.207416
    17   Atom        0.024833     -0.012923      0.201634
    18   Atom       -0.005615     -0.012363     -0.207182
    19   Atom        0.006860     -0.012402      0.200845
 --------------------------------------------------------


 ---------------------------------------------------------------------------------
              Nuclear Quadrupole Coupling Constant in Principal Axis System
 ---------------------------------------------------------------------------------

       Atom             a.u.   MegaHertz   Gauss  10(-4) cm-1        Axes

              Baa    -0.7257     3.485     1.244     1.163 -0.5001 -0.0115  0.8659
     6 N(14)  Bbb     0.1469    -0.706    -0.252    -0.235  0.0030  0.9999  0.0150
              Bcc     0.5788    -2.780    -0.992    -0.927  0.8660 -0.0101  0.5000
 

 ---------------------------------------------------------------------------------

 No NMR shielding tensors so no spin-rotation constants.
 Leave Link  601 at Thu Nov  2 13:06:12 2023, MaxMem=   134217728 cpu:               0.1 elap:               0.1
 FitSet:  NAtFit=    19 NAtPot=    19 NAtFrz=     0 MDM=    23 TotChg=   0.00000
 Merz-Kollman atomic radii used.
 Atom Element Radius
    1     6    1.50
    2     6    1.50
    3     6    1.50
    4     6    1.50
    5     6    1.50
    6     7    1.50
    7     8    1.40
    8     8    1.40
    9     1    1.20
   10     1    1.20
   11     1    1.20
   12     1    1.20
   13     1    1.20
   14     1    1.20
   15     1    1.20
   16     1    1.20
   17     1    1.20
   18     1    1.20
   19     1    1.20
 Generate VDW surfaces: Layer= 4 Dens= 6 Start= 1.400 Inc= 0.200

 **********************************************************************

            Electrostatic Properties Using The SCF Density.

 **********************************************************************

       Atomic Center    1 is at   3.956717 -0.002774  0.097360
       Atomic Center    2 is at   2.600593  0.013583 -0.590511
       Atomic Center    3 is at   1.457664 -0.010320  0.424161
       Atomic Center    4 is at   0.094607  0.006744 -0.271484
       Atomic Center    5 is at  -1.038031 -0.017071  0.745209
       Atomic Center    6 is at  -2.320079  0.000221  0.035869
       Atomic Center    7 is at  -2.829797 -1.095347 -0.270487
       Atomic Center    8 is at  -2.824031  1.107144 -0.237691
       Atomic Center    9 is at   4.758745  0.014533 -0.646305
       Atomic Center   10 is at   4.077844  0.869474  0.747843
       Atomic Center   11 is at   4.076334 -0.904896  0.706445
       Atomic Center   12 is at   2.524966 -0.854689 -1.256126
       Atomic Center   13 is at   2.525693  0.910190 -1.215279
       Atomic Center   14 is at   1.539565  0.856701  1.091527
       Atomic Center   15 is at   1.539675 -0.907432  1.049359
       Atomic Center   16 is at   0.016207 -0.858011 -0.942925
       Atomic Center   17 is at   0.017118  0.901780 -0.901805
       Atomic Center   18 is at  -1.018401  0.860315  1.398690
       Atomic Center   19 is at  -1.015870 -0.924867  1.354507
      ESP Fit Center   20 is at   3.956717 -0.002774  2.197360
      ESP Fit Center   21 is at   4.366406 -0.002774  2.157009
      ESP Fit Center   22 is at   3.547027 -0.002774  2.157009
      ESP Fit Center   23 is at   4.760352 -0.002774  2.037507
      ESP Fit Center   24 is at   3.153081 -0.002774  2.037507
      ESP Fit Center   25 is at   5.123414 -0.002774  1.843446
      ESP Fit Center   26 is at   5.441641 -0.002774  1.582284
      ESP Fit Center   27 is at   5.702803 -0.002774  1.264057
      ESP Fit Center   28 is at   5.652065  0.415092  1.264057
      ESP Fit Center   29 is at   5.652065 -0.420640  1.264057
      ESP Fit Center   30 is at   5.896864 -0.002774  0.900995
      ESP Fit Center   31 is at   5.851504  0.414300  0.900995
      ESP Fit Center   32 is at   5.851504 -0.419848  0.900995
      ESP Fit Center   33 is at   6.016366 -0.002774  0.507050
      ESP Fit Center   34 is at   5.974205  0.411830  0.507050
      ESP Fit Center   35 is at   5.849447  0.809461  0.507050
      ESP Fit Center   36 is at   5.849447 -0.815009  0.507050
      ESP Fit Center   37 is at   5.974205 -0.417378  0.507050
      ESP Fit Center   38 is at   5.702803 -1.169471  0.097360
      ESP Fit Center   39 is at   5.046197  1.745136 -0.312330
      ESP Fit Center   40 is at   4.865498  1.711369 -0.706275
      ESP Fit Center   41 is at   4.475761  1.866655 -0.706275
      ESP Fit Center   42 is at   4.061754  1.934528 -0.706275
      ESP Fit Center   43 is at   4.061754 -1.940075 -0.706275
      ESP Fit Center   44 is at   4.475761 -1.872202 -0.706275
      ESP Fit Center   45 is at   4.865498 -1.716917 -0.706275
      ESP Fit Center   46 is at   4.167184  1.730581 -1.069338
      ESP Fit Center   47 is at   4.167184 -1.736129 -1.069338
      ESP Fit Center   48 is at   4.575887 -1.635393 -1.069338
      ESP Fit Center   49 is at   4.168043  1.467036 -1.387564
      ESP Fit Center   50 is at   4.168043 -1.472584 -1.387564
      ESP Fit Center   51 is at   2.705631  1.950885  0.213124
      ESP Fit Center   52 is at   2.705631 -1.923719  0.213124
      ESP Fit Center   53 is at   3.767291  0.013583 -2.336597
      ESP Fit Center   54 is at   3.688506  0.435043 -2.336597
      ESP Fit Center   55 is at   1.453761  0.227963 -2.336597
      ESP Fit Center   56 is at   3.404228  0.013583 -2.530658
      ESP Fit Center   57 is at   1.796958  0.013583 -2.530658
      ESP Fit Center   58 is at   3.010283  0.013583 -2.650160
      ESP Fit Center   59 is at   1.047974 -0.010320  2.483810
      ESP Fit Center   60 is at   2.261299 -0.010320  2.364308
      ESP Fit Center   61 is at   0.654029 -0.010320  2.364308
      ESP Fit Center   62 is at   2.624361 -0.010320  2.170247
      ESP Fit Center   63 is at   1.562701 -1.947621 -0.379474
      ESP Fit Center   64 is at   0.199645  1.944046  0.532151
      ESP Fit Center   65 is at   0.199645 -1.930557  0.532151
      ESP Fit Center   66 is at  -1.052225  0.221124 -2.017570
      ESP Fit Center   67 is at   0.898242  0.006744 -2.211631
      ESP Fit Center   68 is at  -0.709028  0.006744 -2.211631
      ESP Fit Center   69 is at   0.504297  0.006744 -2.331133
      ESP Fit Center   70 is at  -1.038031 -0.017071  2.845209
      ESP Fit Center   71 is at  -0.628341 -0.017071  2.804858
      ESP Fit Center   72 is at  -1.447721 -0.017071  2.804858
      ESP Fit Center   73 is at  -0.234396 -0.017071  2.685356
      ESP Fit Center   74 is at  -1.841666 -0.017071  2.685356
      ESP Fit Center   75 is at   0.128666 -0.017071  2.491295
      ESP Fit Center   76 is at  -2.184863  0.197309  2.491295
      ESP Fit Center   77 is at  -2.184863 -0.231451  2.491295
      ESP Fit Center   78 is at   0.386743  0.401281  2.230133
      ESP Fit Center   79 is at  -2.462805  0.401281  2.230133
      ESP Fit Center   80 is at  -2.522955 -0.017071  2.230133
      ESP Fit Center   81 is at  -2.462805 -0.435422  2.230133
      ESP Fit Center   82 is at   0.386743 -0.435422  2.230133
      ESP Fit Center   83 is at  -0.932994 -1.954372 -0.058426
      ESP Fit Center   84 is at  -2.729769  0.000221  2.095518
      ESP Fit Center   85 is at  -2.721897  0.696189  1.976016
      ESP Fit Center   86 is at  -3.016047  0.402038  1.976016
      ESP Fit Center   87 is at  -3.123714  0.000221  1.976016
      ESP Fit Center   88 is at  -3.016047 -0.401597  1.976016
      ESP Fit Center   89 is at  -2.721897 -0.695748  1.976016
      ESP Fit Center   90 is at  -2.639361  1.122380  1.781955
      ESP Fit Center   91 is at  -3.023171  0.931265  1.781955
      ESP Fit Center   92 is at  -3.312025  0.614408  1.781955
      ESP Fit Center   93 is at  -3.466911  0.214601  1.781955
      ESP Fit Center   94 is at  -3.466911 -0.214160  1.781955
      ESP Fit Center   95 is at  -3.312025 -0.613966  1.781955
      ESP Fit Center   96 is at  -3.023171 -0.930824  1.781955
      ESP Fit Center   97 is at  -2.639361 -1.121939  1.781955
      ESP Fit Center   98 is at  -3.744853  0.418572  1.520793
      ESP Fit Center   99 is at  -3.805003  0.000221  1.520793
      ESP Fit Center  100 is at  -3.744853 -0.418131  1.520793
      ESP Fit Center  101 is at  -4.015427  0.418086  1.202566
      ESP Fit Center  102 is at  -4.066165  0.000221  1.202566
      ESP Fit Center  103 is at  -4.015427 -0.417645  1.202566
      ESP Fit Center  104 is at  -4.248853  0.209987  0.839504
      ESP Fit Center  105 is at  -4.248853 -0.209546  0.839504
      ESP Fit Center  106 is at  -1.457879  0.786220 -1.710218
      ESP Fit Center  107 is at  -1.516444  0.000221 -1.904278
      ESP Fit Center  108 is at  -1.624110  0.402038 -1.904278
      ESP Fit Center  109 is at  -3.123714  0.000221 -1.904278
      ESP Fit Center  110 is at  -1.624110 -0.401597 -1.904278
      ESP Fit Center  111 is at  -1.910389  0.000221 -2.023780
      ESP Fit Center  112 is at  -2.115234  0.355022 -2.023780
      ESP Fit Center  113 is at  -2.524924  0.355022 -2.023780
      ESP Fit Center  114 is at  -2.729769  0.000221 -2.023780
      ESP Fit Center  115 is at  -2.115234 -0.354581 -2.023780
      ESP Fit Center  116 is at  -2.320079  0.000221 -2.064131
      ESP Fit Center  117 is at  -3.237304 -1.095347  1.646682
      ESP Fit Center  118 is at  -3.033550 -1.448258  1.646682
      ESP Fit Center  119 is at  -2.626043 -1.448258  1.646682
      ESP Fit Center  120 is at  -3.627000 -1.095347  1.520062
      ESP Fit Center  121 is at  -3.520195 -1.493949  1.520062
      ESP Fit Center  122 is at  -3.228399 -1.785746  1.520062
      ESP Fit Center  123 is at  -2.829797 -1.892551  1.520062
      ESP Fit Center  124 is at  -3.962240 -0.883657  1.315186
      ESP Fit Center  125 is at  -3.962240 -1.307037  1.315186
      ESP Fit Center  126 is at  -3.809297 -1.701828  1.315186
      ESP Fit Center  127 is at  -3.524067 -2.014710  1.315186
      ESP Fit Center  128 is at  -3.145073 -2.203427  1.315186
      ESP Fit Center  129 is at  -2.723498 -2.242492  1.315186
      ESP Fit Center  130 is at  -2.316280 -2.126628  1.315186
      ESP Fit Center  131 is at  -4.227359 -0.684985  1.041009
      ESP Fit Center  132 is at  -4.286360 -1.095347  1.041009
      ESP Fit Center  133 is at  -4.227359 -1.505708  1.041009
      ESP Fit Center  134 is at  -4.055136 -1.882825  1.041009
      ESP Fit Center  135 is at  -3.783643 -2.196144  1.041009
      ESP Fit Center  136 is at  -3.434875 -2.420284  1.041009
      ESP Fit Center  137 is at  -3.037087 -2.537085  1.041009
      ESP Fit Center  138 is at  -2.622506 -2.537085  1.041009
      ESP Fit Center  139 is at  -2.224718 -2.420284  1.041009
      ESP Fit Center  140 is at  -4.408008 -0.470489  0.709513
      ESP Fit Center  141 is at  -4.513822 -0.882605  0.709513
      ESP Fit Center  142 is at  -4.513822 -1.308089  0.709513
      ESP Fit Center  143 is at  -4.408008 -1.720205  0.709513
      ESP Fit Center  144 is at  -4.203030 -2.093059  0.709513
      ESP Fit Center  145 is at  -3.911766 -2.403224  0.709513
      ESP Fit Center  146 is at  -3.552519 -2.631209  0.709513
      ESP Fit Center  147 is at  -3.147859 -2.762691  0.709513
      ESP Fit Center  148 is at  -2.723215 -2.789407  0.709513
      ESP Fit Center  149 is at  -2.305268 -2.709680  0.709513
      ESP Fit Center  150 is at  -1.920279 -2.528517  0.709513
      ESP Fit Center  151 is at  -4.509266 -0.286557  0.335186
      ESP Fit Center  152 is at  -4.647131 -0.680552  0.335186
      ESP Fit Center  153 is at  -4.693867 -1.095347  0.335186
      ESP Fit Center  154 is at  -4.647131 -1.510142  0.335186
      ESP Fit Center  155 is at  -4.509266 -1.904137  0.335186
      ESP Fit Center  156 is at  -4.287186 -2.257576  0.335186
      ESP Fit Center  157 is at  -3.992026 -2.552736  0.335186
      ESP Fit Center  158 is at  -3.638587 -2.774817  0.335186
      ESP Fit Center  159 is at  -3.244591 -2.912682  0.335186
      ESP Fit Center  160 is at  -2.829797 -2.959418  0.335186
      ESP Fit Center  161 is at  -2.415002 -2.912682  0.335186
      ESP Fit Center  162 is at  -2.021007 -2.774817  0.335186
      ESP Fit Center  163 is at  -1.667567 -2.552736  0.335186
      ESP Fit Center  164 is at  -1.372407 -2.257576  0.335186
      ESP Fit Center  165 is at  -4.500037 -0.090397 -0.065611
      ESP Fit Center  166 is at  -4.677022 -0.472944 -0.065611
      ESP Fit Center  167 is at  -4.767633 -0.884595 -0.065611
      ESP Fit Center  168 is at  -4.767633 -1.306099 -0.065611
      ESP Fit Center  169 is at  -4.677022 -1.717750 -0.065611
      ESP Fit Center  170 is at  -4.500037 -2.100297 -0.065611
      ESP Fit Center  171 is at  -4.244953 -2.435854 -0.065611
      ESP Fit Center  172 is at  -3.923698 -2.708730 -0.065611
      ESP Fit Center  173 is at  -3.551293 -2.906167 -0.065611
      ESP Fit Center  174 is at  -3.145152 -3.018931 -0.065611
      ESP Fit Center  175 is at  -2.724266 -3.041751 -0.065611
      ESP Fit Center  176 is at  -2.308314 -2.973559 -0.065611
      ESP Fit Center  177 is at  -1.916745 -2.817544 -0.065611
      ESP Fit Center  178 is at  -1.567871 -2.581001 -0.065611
      ESP Fit Center  179 is at  -1.278002 -2.274991 -0.065611
      ESP Fit Center  180 is at  -4.500037 -0.090397 -0.475363
      ESP Fit Center  181 is at  -4.677022 -0.472944 -0.475363
      ESP Fit Center  182 is at  -4.767633 -0.884595 -0.475363
      ESP Fit Center  183 is at  -4.767633 -1.306099 -0.475363
      ESP Fit Center  184 is at  -4.677022 -1.717750 -0.475363
      ESP Fit Center  185 is at  -4.500037 -2.100297 -0.475363
      ESP Fit Center  186 is at  -4.244953 -2.435854 -0.475363
      ESP Fit Center  187 is at  -3.923698 -2.708730 -0.475363
      ESP Fit Center  188 is at  -3.551293 -2.906167 -0.475363
      ESP Fit Center  189 is at  -3.145152 -3.018931 -0.475363
      ESP Fit Center  190 is at  -2.724266 -3.041751 -0.475363
      ESP Fit Center  191 is at  -2.308314 -2.973559 -0.475363
      ESP Fit Center  192 is at  -1.916745 -2.817544 -0.475363
      ESP Fit Center  193 is at  -1.567871 -2.581001 -0.475363
      ESP Fit Center  194 is at  -1.278002 -2.274991 -0.475363
      ESP Fit Center  195 is at  -4.509266 -0.286557 -0.876160
      ESP Fit Center  196 is at  -4.647131 -0.680552 -0.876160
      ESP Fit Center  197 is at  -4.693867 -1.095347 -0.876160
      ESP Fit Center  198 is at  -4.647131 -1.510142 -0.876160
      ESP Fit Center  199 is at  -4.509266 -1.904137 -0.876160
      ESP Fit Center  200 is at  -4.287186 -2.257576 -0.876160
      ESP Fit Center  201 is at  -3.992026 -2.552736 -0.876160
      ESP Fit Center  202 is at  -3.638587 -2.774817 -0.876160
      ESP Fit Center  203 is at  -3.244591 -2.912682 -0.876160
      ESP Fit Center  204 is at  -2.829797 -2.959418 -0.876160
      ESP Fit Center  205 is at  -2.415002 -2.912682 -0.876160
      ESP Fit Center  206 is at  -2.021007 -2.774817 -0.876160
      ESP Fit Center  207 is at  -1.667567 -2.552736 -0.876160
      ESP Fit Center  208 is at  -1.372407 -2.257576 -0.876160
      ESP Fit Center  209 is at  -4.203030 -0.097635 -1.250487
      ESP Fit Center  210 is at  -4.408008 -0.470489 -1.250487
      ESP Fit Center  211 is at  -4.513822 -0.882605 -1.250487
      ESP Fit Center  212 is at  -4.513822 -1.308089 -1.250487
      ESP Fit Center  213 is at  -4.408008 -1.720205 -1.250487
      ESP Fit Center  214 is at  -4.203030 -2.093059 -1.250487
      ESP Fit Center  215 is at  -3.911766 -2.403224 -1.250487
      ESP Fit Center  216 is at  -3.552519 -2.631209 -1.250487
      ESP Fit Center  217 is at  -3.147859 -2.762691 -1.250487
      ESP Fit Center  218 is at  -2.723215 -2.789407 -1.250487
      ESP Fit Center  219 is at  -2.305268 -2.709680 -1.250487
      ESP Fit Center  220 is at  -1.920279 -2.528517 -1.250487
      ESP Fit Center  221 is at  -1.592438 -2.257304 -1.250487
      ESP Fit Center  222 is at  -1.342345 -1.913080 -1.250487
      ESP Fit Center  223 is at  -3.783643  0.005451 -1.581983
      ESP Fit Center  224 is at  -4.055136 -0.307869 -1.581983
      ESP Fit Center  225 is at  -4.227359 -0.684985 -1.581983
      ESP Fit Center  226 is at  -4.286360 -1.095347 -1.581983
      ESP Fit Center  227 is at  -4.227359 -1.505708 -1.581983
      ESP Fit Center  228 is at  -4.055136 -1.882825 -1.581983
      ESP Fit Center  229 is at  -3.783643 -2.196144 -1.581983
      ESP Fit Center  230 is at  -3.434875 -2.420284 -1.581983
      ESP Fit Center  231 is at  -3.037087 -2.537085 -1.581983
      ESP Fit Center  232 is at  -2.622506 -2.537085 -1.581983
      ESP Fit Center  233 is at  -2.224718 -2.420284 -1.581983
      ESP Fit Center  234 is at  -1.875950 -2.196144 -1.581983
      ESP Fit Center  235 is at  -1.604457 -1.882825 -1.581983
      ESP Fit Center  236 is at  -1.432234 -1.505708 -1.581983
      ESP Fit Center  237 is at  -1.677738 -1.095347 -1.856160
      ESP Fit Center  238 is at  -3.524067 -0.175984 -1.856160
      ESP Fit Center  239 is at  -3.809297 -0.488866 -1.856160
      ESP Fit Center  240 is at  -3.962240 -0.883657 -1.856160
      ESP Fit Center  241 is at  -3.962240 -1.307037 -1.856160
      ESP Fit Center  242 is at  -3.809297 -1.701828 -1.856160
      ESP Fit Center  243 is at  -3.524067 -2.014710 -1.856160
      ESP Fit Center  244 is at  -3.145073 -2.203427 -1.856160
      ESP Fit Center  245 is at  -2.723498 -2.242492 -1.856160
      ESP Fit Center  246 is at  -2.316280 -2.126628 -1.856160
      ESP Fit Center  247 is at  -1.978415 -1.871484 -1.856160
      ESP Fit Center  248 is at  -1.755533 -1.511519 -1.856160
      ESP Fit Center  249 is at  -2.032593 -1.095347 -2.061036
      ESP Fit Center  250 is at  -2.139398 -0.696745 -2.061036
      ESP Fit Center  251 is at  -2.431195 -0.404948 -2.061036
      ESP Fit Center  252 is at  -2.829797 -0.298143 -2.061036
      ESP Fit Center  253 is at  -3.228399 -0.404948 -2.061036
      ESP Fit Center  254 is at  -3.520195 -0.696745 -2.061036
      ESP Fit Center  255 is at  -3.627000 -1.095347 -2.061036
      ESP Fit Center  256 is at  -3.520195 -1.493949 -2.061036
      ESP Fit Center  257 is at  -3.228399 -1.785746 -2.061036
      ESP Fit Center  258 is at  -2.829797 -1.892551 -2.061036
      ESP Fit Center  259 is at  -2.431195 -1.785746 -2.061036
      ESP Fit Center  260 is at  -2.139398 -1.493949 -2.061036
      ESP Fit Center  261 is at  -2.422290 -1.095347 -2.187656
      ESP Fit Center  262 is at  -2.626043 -0.742436 -2.187656
      ESP Fit Center  263 is at  -3.033550 -0.742436 -2.187656
      ESP Fit Center  264 is at  -3.237304 -1.095347 -2.187656
      ESP Fit Center  265 is at  -3.033550 -1.448258 -2.187656
      ESP Fit Center  266 is at  -2.626043 -1.448258 -2.187656
      ESP Fit Center  267 is at  -2.829797 -1.095347 -2.230487
      ESP Fit Center  268 is at  -2.620278  1.460056  1.679478
      ESP Fit Center  269 is at  -3.027785  1.460056  1.679478
      ESP Fit Center  270 is at  -3.231538  1.107144  1.679478
      ESP Fit Center  271 is at  -2.425429  1.797543  1.552858
      ESP Fit Center  272 is at  -2.824031  1.904348  1.552858
      ESP Fit Center  273 is at  -3.222633  1.797543  1.552858
      ESP Fit Center  274 is at  -3.514430  1.505746  1.552858
      ESP Fit Center  275 is at  -3.621235  1.107144  1.552858
      ESP Fit Center  276 is at  -2.310514  2.138425  1.347982
      ESP Fit Center  277 is at  -2.717733  2.254289  1.347982
      ESP Fit Center  278 is at  -3.139307  2.215224  1.347982
      ESP Fit Center  279 is at  -3.518302  2.026507  1.347982
      ESP Fit Center  280 is at  -3.803532  1.713625  1.347982
      ESP Fit Center  281 is at  -3.956474  1.318835  1.347982
      ESP Fit Center  282 is at  -3.956474  0.895454  1.347982
      ESP Fit Center  283 is at  -2.218953  2.432081  1.073805
      ESP Fit Center  284 is at  -2.616741  2.548883  1.073805
      ESP Fit Center  285 is at  -3.031322  2.548883  1.073805
      ESP Fit Center  286 is at  -3.429110  2.432081  1.073805
      ESP Fit Center  287 is at  -3.777878  2.207942  1.073805
      ESP Fit Center  288 is at  -4.049371  1.894622  1.073805
      ESP Fit Center  289 is at  -4.221594  1.517506  1.073805
      ESP Fit Center  290 is at  -4.280595  1.107144  1.073805
      ESP Fit Center  291 is at  -4.221594  0.696783  1.073805
      ESP Fit Center  292 is at  -1.914514  2.540315  0.742309
      ESP Fit Center  293 is at  -2.299503  2.721477  0.742309
      ESP Fit Center  294 is at  -2.717450  2.801205  0.742309
      ESP Fit Center  295 is at  -3.142094  2.774488  0.742309
      ESP Fit Center  296 is at  -3.546753  2.643007  0.742309
      ESP Fit Center  297 is at  -3.906001  2.415021  0.742309
      ESP Fit Center  298 is at  -4.197265  2.104857  0.742309
      ESP Fit Center  299 is at  -4.402243  1.732003  0.742309
      ESP Fit Center  300 is at  -4.508056  1.319886  0.742309
      ESP Fit Center  301 is at  -4.508056  0.894403  0.742309
      ESP Fit Center  302 is at  -4.402243  0.482286  0.742309
      ESP Fit Center  303 is at  -1.366642  2.269374  0.367982
      ESP Fit Center  304 is at  -1.661802  2.564534  0.367982
      ESP Fit Center  305 is at  -2.015241  2.786614  0.367982
      ESP Fit Center  306 is at  -2.409236  2.924479  0.367982
      ESP Fit Center  307 is at  -2.824031  2.971215  0.367982
      ESP Fit Center  308 is at  -3.238826  2.924479  0.367982
      ESP Fit Center  309 is at  -3.632821  2.786614  0.367982
      ESP Fit Center  310 is at  -3.986260  2.564534  0.367982
      ESP Fit Center  311 is at  -4.281420  2.269374  0.367982
      ESP Fit Center  312 is at  -4.503501  1.915934  0.367982
      ESP Fit Center  313 is at  -4.641366  1.521939  0.367982
      ESP Fit Center  314 is at  -4.688102  1.107144  0.367982
      ESP Fit Center  315 is at  -4.641366  0.692350  0.367982
      ESP Fit Center  316 is at  -4.503501  0.298354  0.367982
      ESP Fit Center  317 is at  -1.272236  2.286788 -0.032815
      ESP Fit Center  318 is at  -1.562105  2.592799 -0.032815
      ESP Fit Center  319 is at  -1.910980  2.829342 -0.032815
      ESP Fit Center  320 is at  -2.302548  2.985357 -0.032815
      ESP Fit Center  321 is at  -2.718500  3.053549 -0.032815
      ESP Fit Center  322 is at  -3.139387  3.030729 -0.032815
      ESP Fit Center  323 is at  -3.545528  2.917964 -0.032815
      ESP Fit Center  324 is at  -3.917932  2.720528 -0.032815
      ESP Fit Center  325 is at  -4.239187  2.447651 -0.032815
      ESP Fit Center  326 is at  -4.494271  2.112094 -0.032815
      ESP Fit Center  327 is at  -4.671256  1.729547 -0.032815
      ESP Fit Center  328 is at  -4.761867  1.317897 -0.032815
      ESP Fit Center  329 is at  -4.761867  0.896392 -0.032815
      ESP Fit Center  330 is at  -4.671256  0.484742 -0.032815
      ESP Fit Center  331 is at  -4.494271  0.102194 -0.032815
      ESP Fit Center  332 is at  -1.272236  2.286788 -0.442567
      ESP Fit Center  333 is at  -1.562105  2.592799 -0.442567
      ESP Fit Center  334 is at  -1.910980  2.829342 -0.442567
      ESP Fit Center  335 is at  -2.302548  2.985357 -0.442567
      ESP Fit Center  336 is at  -2.718500  3.053549 -0.442567
      ESP Fit Center  337 is at  -3.139387  3.030729 -0.442567
      ESP Fit Center  338 is at  -3.545528  2.917964 -0.442567
      ESP Fit Center  339 is at  -3.917932  2.720528 -0.442567
      ESP Fit Center  340 is at  -4.239187  2.447651 -0.442567
      ESP Fit Center  341 is at  -4.494271  2.112094 -0.442567
      ESP Fit Center  342 is at  -4.671256  1.729547 -0.442567
      ESP Fit Center  343 is at  -4.761867  1.317897 -0.442567
      ESP Fit Center  344 is at  -4.761867  0.896392 -0.442567
      ESP Fit Center  345 is at  -4.671256  0.484742 -0.442567
      ESP Fit Center  346 is at  -4.494271  0.102194 -0.442567
      ESP Fit Center  347 is at  -1.366642  2.269374 -0.843364
      ESP Fit Center  348 is at  -1.661802  2.564534 -0.843364
      ESP Fit Center  349 is at  -2.015241  2.786614 -0.843364
      ESP Fit Center  350 is at  -2.409236  2.924479 -0.843364
      ESP Fit Center  351 is at  -2.824031  2.971215 -0.843364
      ESP Fit Center  352 is at  -3.238826  2.924479 -0.843364
      ESP Fit Center  353 is at  -3.632821  2.786614 -0.843364
      ESP Fit Center  354 is at  -3.986260  2.564534 -0.843364
      ESP Fit Center  355 is at  -4.281420  2.269374 -0.843364
      ESP Fit Center  356 is at  -4.503501  1.915934 -0.843364
      ESP Fit Center  357 is at  -4.641366  1.521939 -0.843364
      ESP Fit Center  358 is at  -4.688102  1.107144 -0.843364
      ESP Fit Center  359 is at  -4.641366  0.692350 -0.843364
      ESP Fit Center  360 is at  -4.503501  0.298354 -0.843364
      ESP Fit Center  361 is at  -1.336580  1.924878 -1.217691
      ESP Fit Center  362 is at  -1.586673  2.269101 -1.217691
      ESP Fit Center  363 is at  -1.914514  2.540315 -1.217691
      ESP Fit Center  364 is at  -2.299503  2.721477 -1.217691
      ESP Fit Center  365 is at  -2.717450  2.801205 -1.217691
      ESP Fit Center  366 is at  -3.142094  2.774488 -1.217691
      ESP Fit Center  367 is at  -3.546753  2.643007 -1.217691
      ESP Fit Center  368 is at  -3.906001  2.415021 -1.217691
      ESP Fit Center  369 is at  -4.197265  2.104857 -1.217691
      ESP Fit Center  370 is at  -4.402243  1.732003 -1.217691
      ESP Fit Center  371 is at  -4.508056  1.319886 -1.217691
      ESP Fit Center  372 is at  -4.508056  0.894403 -1.217691
      ESP Fit Center  373 is at  -4.402243  0.482286 -1.217691
      ESP Fit Center  374 is at  -4.197265  0.109432 -1.217691
      ESP Fit Center  375 is at  -1.426468  1.517506 -1.549187
      ESP Fit Center  376 is at  -1.598692  1.894622 -1.549187
      ESP Fit Center  377 is at  -1.870185  2.207942 -1.549187
      ESP Fit Center  378 is at  -2.218953  2.432081 -1.549187
      ESP Fit Center  379 is at  -2.616741  2.548883 -1.549187
      ESP Fit Center  380 is at  -3.031322  2.548883 -1.549187
      ESP Fit Center  381 is at  -3.429110  2.432081 -1.549187
      ESP Fit Center  382 is at  -3.777878  2.207942 -1.549187
      ESP Fit Center  383 is at  -4.049371  1.894622 -1.549187
      ESP Fit Center  384 is at  -4.221594  1.517506 -1.549187
      ESP Fit Center  385 is at  -4.280595  1.107144 -1.549187
      ESP Fit Center  386 is at  -4.221594  0.696783 -1.549187
      ESP Fit Center  387 is at  -4.049371  0.319667 -1.549187
      ESP Fit Center  388 is at  -1.671972  1.107144 -1.823364
      ESP Fit Center  389 is at  -1.749768  1.523316 -1.823364
      ESP Fit Center  390 is at  -1.972649  1.883282 -1.823364
      ESP Fit Center  391 is at  -2.310514  2.138425 -1.823364
      ESP Fit Center  392 is at  -2.717733  2.254289 -1.823364
      ESP Fit Center  393 is at  -3.139307  2.215224 -1.823364
      ESP Fit Center  394 is at  -3.518302  2.026507 -1.823364
      ESP Fit Center  395 is at  -3.803532  1.713625 -1.823364
      ESP Fit Center  396 is at  -3.956474  1.318835 -1.823364
      ESP Fit Center  397 is at  -3.956474  0.895454 -1.823364
      ESP Fit Center  398 is at  -3.803532  0.500663 -1.823364
      ESP Fit Center  399 is at  -3.518302  0.187781 -1.823364
      ESP Fit Center  400 is at  -2.026827  1.107144 -2.028240
      ESP Fit Center  401 is at  -2.133632  1.505746 -2.028240
      ESP Fit Center  402 is at  -2.425429  1.797543 -2.028240
      ESP Fit Center  403 is at  -2.824031  1.904348 -2.028240
      ESP Fit Center  404 is at  -3.222633  1.797543 -2.028240
      ESP Fit Center  405 is at  -3.514430  1.505746 -2.028240
      ESP Fit Center  406 is at  -3.621235  1.107144 -2.028240
      ESP Fit Center  407 is at  -3.514430  0.708543 -2.028240
      ESP Fit Center  408 is at  -3.222633  0.416746 -2.028240
      ESP Fit Center  409 is at  -2.824031  0.309941 -2.028240
      ESP Fit Center  410 is at  -2.425429  0.416746 -2.028240
      ESP Fit Center  411 is at  -2.133632  0.708543 -2.028240
      ESP Fit Center  412 is at  -2.416524  1.107144 -2.154860
      ESP Fit Center  413 is at  -2.620278  1.460056 -2.154860
      ESP Fit Center  414 is at  -3.027785  1.460056 -2.154860
      ESP Fit Center  415 is at  -3.231538  1.107144 -2.154860
      ESP Fit Center  416 is at  -3.027785  0.754233 -2.154860
      ESP Fit Center  417 is at  -2.620278  0.754233 -2.154860
      ESP Fit Center  418 is at  -2.824031  1.107144 -2.197691
      ESP Fit Center  419 is at   6.213668  0.014533  0.193695
      ESP Fit Center  420 is at   6.149029  0.443379  0.193695
      ESP Fit Center  421 is at   5.960858  0.834120  0.193695
      ESP Fit Center  422 is at   5.960858 -0.805054  0.193695
      ESP Fit Center  423 is at   6.149029 -0.414313  0.193695
      ESP Fit Center  424 is at   6.381500  0.014533 -0.211489
      ESP Fit Center  425 is at   6.326206  0.434533 -0.211489
      ESP Fit Center  426 is at   6.164092  0.825911 -0.211489
      ESP Fit Center  427 is at   5.906206  1.161994 -0.211489
      ESP Fit Center  428 is at   5.570123  1.419880 -0.211489
      ESP Fit Center  429 is at   5.570123 -1.390814 -0.211489
      ESP Fit Center  430 is at   5.906206 -1.132928 -0.211489
      ESP Fit Center  431 is at   6.164092 -0.796845 -0.211489
      ESP Fit Center  432 is at   6.326206 -0.405467 -0.211489
      ESP Fit Center  433 is at   6.438745  0.014533 -0.646305
      ESP Fit Center  434 is at   6.385965  0.432332 -0.646305
      ESP Fit Center  435 is at   6.230940  0.823879 -0.646305
      ESP Fit Center  436 is at   5.983412  1.164572 -0.646305
      ESP Fit Center  437 is at   5.658934  1.433004 -0.646305
      ESP Fit Center  438 is at   5.277893  1.612308 -0.646305
      ESP Fit Center  439 is at   5.277893 -1.583242 -0.646305
      ESP Fit Center  440 is at   5.658934 -1.403938 -0.646305
      ESP Fit Center  441 is at   5.983412 -1.135506 -0.646305
      ESP Fit Center  442 is at   6.230940 -0.794813 -0.646305
      ESP Fit Center  443 is at   6.385965 -0.403266 -0.646305
      ESP Fit Center  444 is at   6.381500  0.014533 -1.081121
      ESP Fit Center  445 is at   6.326206  0.434533 -1.081121
      ESP Fit Center  446 is at   6.164092  0.825911 -1.081121
      ESP Fit Center  447 is at   5.906206  1.161994 -1.081121
      ESP Fit Center  448 is at   5.570123  1.419880 -1.081121
      ESP Fit Center  449 is at   5.178745  1.581994 -1.081121
      ESP Fit Center  450 is at   4.758745  1.637288 -1.081121
      ESP Fit Center  451 is at   4.758745 -1.608222 -1.081121
      ESP Fit Center  452 is at   5.178745 -1.552928 -1.081121
      ESP Fit Center  453 is at   5.570123 -1.390814 -1.081121
      ESP Fit Center  454 is at   5.906206 -1.132928 -1.081121
      ESP Fit Center  455 is at   6.164092 -0.796845 -1.081121
      ESP Fit Center  456 is at   6.326206 -0.405467 -1.081121
      ESP Fit Center  457 is at   6.213668  0.014533 -1.486305
      ESP Fit Center  458 is at   6.149029  0.443379 -1.486305
      ESP Fit Center  459 is at   5.960858  0.834120 -1.486305
      ESP Fit Center  460 is at   5.665874  1.152037 -1.486305
      ESP Fit Center  461 is at   5.290288  1.368882 -1.486305
      ESP Fit Center  462 is at   4.867471  1.465387 -1.486305
      ESP Fit Center  463 is at   4.434994  1.432978 -1.486305
      ESP Fit Center  464 is at   4.434994 -1.403912 -1.486305
      ESP Fit Center  465 is at   4.867471 -1.436321 -1.486305
      ESP Fit Center  466 is at   5.290288 -1.339816 -1.486305
      ESP Fit Center  467 is at   5.665874 -1.122971 -1.486305
      ESP Fit Center  468 is at   5.960858 -0.805054 -1.486305
      ESP Fit Center  469 is at   6.149029 -0.414313 -1.486305
      ESP Fit Center  470 is at   5.946684  0.014533 -1.834244
      ESP Fit Center  471 is at   5.866465  0.443666 -1.834244
      ESP Fit Center  472 is at   5.636643  0.814843 -1.834244
      ESP Fit Center  473 is at   5.288255  1.077933 -1.834244
      ESP Fit Center  474 is at   4.868354  1.197405 -1.834244
      ESP Fit Center  475 is at   4.433650  1.157124 -1.834244
      ESP Fit Center  476 is at   4.433650 -1.128058 -1.834244
      ESP Fit Center  477 is at   4.868354 -1.168339 -1.834244
      ESP Fit Center  478 is at   5.288255 -1.048867 -1.834244
      ESP Fit Center  479 is at   5.636643 -0.785777 -1.834244
      ESP Fit Center  480 is at   5.866465 -0.414600 -1.834244
      ESP Fit Center  481 is at   5.598745  0.014533 -2.101227
      ESP Fit Center  482 is at   5.486206  0.434533 -2.101227
      ESP Fit Center  483 is at   5.178745  0.741994 -2.101227
      ESP Fit Center  484 is at   4.758745  0.854533 -2.101227
      ESP Fit Center  485 is at   4.338745  0.741994 -2.101227
      ESP Fit Center  486 is at   4.031284  0.434533 -2.101227
      ESP Fit Center  487 is at   4.031284 -0.405467 -2.101227
      ESP Fit Center  488 is at   4.338745 -0.712928 -2.101227
      ESP Fit Center  489 is at   4.758745 -0.825467 -2.101227
      ESP Fit Center  490 is at   5.178745 -0.712928 -2.101227
      ESP Fit Center  491 is at   5.486206 -0.405467 -2.101227
      ESP Fit Center  492 is at   5.193561  0.014533 -2.269060
      ESP Fit Center  493 is at   4.976153  0.391095 -2.269060
      ESP Fit Center  494 is at   4.541337  0.391095 -2.269060
      ESP Fit Center  495 is at   4.323929  0.014533 -2.269060
      ESP Fit Center  496 is at   4.541337 -0.362029 -2.269060
      ESP Fit Center  497 is at   4.976153 -0.362029 -2.269060
      ESP Fit Center  498 is at   4.758745  0.014533 -2.326305
      ESP Fit Center  499 is at   4.077844  0.869474  2.427843
      ESP Fit Center  500 is at   4.512660  0.869474  2.370598
      ESP Fit Center  501 is at   4.295252  1.246036  2.370598
      ESP Fit Center  502 is at   3.860436  1.246036  2.370598
      ESP Fit Center  503 is at   3.643028  0.869474  2.370598
      ESP Fit Center  504 is at   3.860436  0.492912  2.370598
      ESP Fit Center  505 is at   4.295252  0.492912  2.370598
      ESP Fit Center  506 is at   4.917844  0.869474  2.202765
      ESP Fit Center  507 is at   4.805305  1.289474  2.202765
      ESP Fit Center  508 is at   4.497844  1.596935  2.202765
      ESP Fit Center  509 is at   4.077844  1.709474  2.202765
      ESP Fit Center  510 is at   3.657844  1.596935  2.202765
      ESP Fit Center  511 is at   3.350382  1.289474  2.202765
      ESP Fit Center  512 is at   3.237844  0.869474  2.202765
      ESP Fit Center  513 is at   3.350382  0.449474  2.202765
      ESP Fit Center  514 is at   3.657844  0.142013  2.202765
      ESP Fit Center  515 is at   4.077844  0.029474  2.202765
      ESP Fit Center  516 is at   4.497844  0.142013  2.202765
      ESP Fit Center  517 is at   4.805305  0.449474  2.202765
      ESP Fit Center  518 is at   5.265783  0.869474  1.935782
      ESP Fit Center  519 is at   5.185564  1.298607  1.935782
      ESP Fit Center  520 is at   4.955741  1.669784  1.935782
      ESP Fit Center  521 is at   4.607354  1.932874  1.935782
      ESP Fit Center  522 is at   4.187453  2.052346  1.935782
      ESP Fit Center  523 is at   3.752748  2.012065  1.935782
      ESP Fit Center  524 is at   3.361950  1.817470  1.935782
      ESP Fit Center  525 is at   3.067837  1.494844  1.935782
      ESP Fit Center  526 is at   5.185564  0.440341  1.935782
      ESP Fit Center  527 is at   5.532766  0.869474  1.587843
      ESP Fit Center  528 is at   5.468128  1.298320  1.587843
      ESP Fit Center  529 is at   5.279957  1.689061  1.587843
      ESP Fit Center  530 is at   4.984973  2.006978  1.587843
      ESP Fit Center  531 is at   4.609386  2.223823  1.587843
      ESP Fit Center  532 is at   4.186570  2.320328  1.587843
      ESP Fit Center  533 is at   3.754093  2.287919  1.587843
      ESP Fit Center  534 is at   3.350382  2.129474  1.587843
      ESP Fit Center  535 is at   3.011310  1.859073  1.587843
      ESP Fit Center  536 is at   5.468128  0.440628  1.587843
      ESP Fit Center  537 is at   5.700599  0.869474  1.182659
      ESP Fit Center  538 is at   5.645305  1.289474  1.182659
      ESP Fit Center  539 is at   5.483191  1.680852  1.182659
      ESP Fit Center  540 is at   5.225305  2.016935  1.182659
      ESP Fit Center  541 is at   4.889221  2.274821  1.182659
      ESP Fit Center  542 is at   4.497844  2.436935  1.182659
      ESP Fit Center  543 is at   4.077844  2.492229  1.182659
      ESP Fit Center  544 is at   3.657844  2.436935  1.182659
      ESP Fit Center  545 is at   3.266466  2.274821  1.182659
      ESP Fit Center  546 is at   2.930382  2.016935  1.182659
      ESP Fit Center  547 is at   5.757844  0.869474  0.747843
      ESP Fit Center  548 is at   5.705063  1.287273  0.747843
      ESP Fit Center  549 is at   5.550039  1.678820  0.747843
      ESP Fit Center  550 is at   5.302511  2.019513  0.747843
      ESP Fit Center  551 is at   4.978033  2.287945  0.747843
      ESP Fit Center  552 is at   4.596992  2.467249  0.747843
      ESP Fit Center  553 is at   4.183332  2.546159  0.747843
      ESP Fit Center  554 is at   3.763043  2.519717  0.747843
      ESP Fit Center  555 is at   3.362534  2.389584  0.747843
      ESP Fit Center  556 is at   3.006971  2.163936  0.747843
      ESP Fit Center  557 is at   5.645305  1.289474  0.313027
      ESP Fit Center  558 is at   5.483191  1.680852  0.313027
      ESP Fit Center  559 is at   5.225305  2.016935  0.313027
      ESP Fit Center  560 is at   4.889221  2.274821  0.313027
      ESP Fit Center  561 is at   4.497844  2.436935  0.313027
      ESP Fit Center  562 is at   4.077844  2.492229  0.313027
      ESP Fit Center  563 is at   3.657844  2.436935  0.313027
      ESP Fit Center  564 is at   3.266466  2.274821  0.313027
      ESP Fit Center  565 is at   2.930382  2.016935  0.313027
      ESP Fit Center  566 is at   5.279957  1.689061 -0.092157
      ESP Fit Center  567 is at   4.984973  2.006978 -0.092157
      ESP Fit Center  568 is at   4.609386  2.223823 -0.092157
      ESP Fit Center  569 is at   4.186570  2.320328 -0.092157
      ESP Fit Center  570 is at   3.754093  2.287919 -0.092157
      ESP Fit Center  571 is at   3.350382  2.129474 -0.092157
      ESP Fit Center  572 is at   4.607354  1.932874 -0.440097
      ESP Fit Center  573 is at   4.187453  2.052346 -0.440097
      ESP Fit Center  574 is at   4.076334 -0.904896  2.386445
      ESP Fit Center  575 is at   4.511150 -0.904896  2.329200
      ESP Fit Center  576 is at   4.293742 -0.528334  2.329200
      ESP Fit Center  577 is at   3.858926 -0.528334  2.329200
      ESP Fit Center  578 is at   3.641518 -0.904896  2.329200
      ESP Fit Center  579 is at   3.858926 -1.281458  2.329200
      ESP Fit Center  580 is at   4.293742 -1.281458  2.329200
      ESP Fit Center  581 is at   4.916334 -0.904896  2.161367
      ESP Fit Center  582 is at   4.803796 -0.484896  2.161367
      ESP Fit Center  583 is at   4.496334 -0.177435  2.161367
      ESP Fit Center  584 is at   3.348873 -0.484896  2.161367
      ESP Fit Center  585 is at   3.236334 -0.904896  2.161367
      ESP Fit Center  586 is at   3.348873 -1.324896  2.161367
      ESP Fit Center  587 is at   3.656334 -1.632357  2.161367
      ESP Fit Center  588 is at   4.076334 -1.744896  2.161367
      ESP Fit Center  589 is at   4.496334 -1.632357  2.161367
      ESP Fit Center  590 is at   4.803796 -1.324896  2.161367
      ESP Fit Center  591 is at   5.264274 -0.904896  1.894384
      ESP Fit Center  592 is at   5.184055 -0.475763  1.894384
      ESP Fit Center  593 is at   3.066328 -1.530265  1.894384
      ESP Fit Center  594 is at   3.360441 -1.852892  1.894384
      ESP Fit Center  595 is at   3.751239 -2.047487  1.894384
      ESP Fit Center  596 is at   4.185943 -2.087768  1.894384
      ESP Fit Center  597 is at   4.605844 -1.968296  1.894384
      ESP Fit Center  598 is at   4.954232 -1.705206  1.894384
      ESP Fit Center  599 is at   5.184055 -1.334029  1.894384
      ESP Fit Center  600 is at   5.531257 -0.904896  1.546445
[...]
 4969 Fit       0.009587
 4970 Fit       0.008871
 4971 Fit       0.008197
 4972 Fit       0.007569
 4973 Fit       0.007009
 4974 Fit       0.013490
 4975 Fit       0.012178
 4976 Fit       0.011160
 4977 Fit       0.010317
 4978 Fit       0.009576
 4979 Fit       0.008891
 4980 Fit       0.008243
 4981 Fit       0.007626
 4982 Fit       0.007049
 4983 Fit       0.006534
 4984 Fit       0.014160
 4985 Fit       0.012615
 4986 Fit       0.011465
 4987 Fit       0.010549
 4988 Fit       0.009769
 4989 Fit       0.009066
 4990 Fit       0.008407
 4991 Fit       0.007779
 4992 Fit       0.007183
 4993 Fit       0.006630
 4994 Fit       0.006139
 4995 Fit       0.012963
 4996 Fit       0.011706
 4997 Fit       0.010723
 4998 Fit       0.009906
 4999 Fit       0.009188
 5000 Fit       0.008527
 5001 Fit       0.007904
 5002 Fit       0.007312
 5003 Fit       0.006758
 5004 Fit       0.006254
 5005 Fit       0.013727
 5006 Fit       0.012250
 5007 Fit       0.011115
 5008 Fit       0.010198
 5009 Fit       0.009420
 5010 Fit       0.008727
 5011 Fit       0.008088
 5012 Fit       0.007491
 5013 Fit       0.006933
 5014 Fit       0.006425
 5015 Fit       0.013913
 5016 Fit       0.012330
 5017 Fit       0.011094
 5018 Fit       0.010098
 5019 Fit       0.009262
 5020 Fit       0.008529
 5021 Fit       0.007868
 5022 Fit       0.007264
 5023 Fit       0.006719
 5024 Fit       0.006249
 5025 Fit       0.011522
 5026 Fit       0.010336
 5027 Fit       0.009362
 5028 Fit       0.008536
 5029 Fit       0.007815
 5030 Fit       0.007182
 5031 Fit       0.006641
 5032 Fit       0.009649
 5033 Fit       0.008689
 5034 Fit       0.007885
 5035 Fit       0.014052
 5036 Fit       0.013059
 5037 Fit       0.012331
 5038 Fit       0.011758
 5039 Fit       0.013271
 5040 Fit       0.012357
 5041 Fit       0.011700
 5042 Fit       0.011179
 5043 Fit       0.010718
 5044 Fit       0.010249
 5045 Fit       0.012987
 5046 Fit       0.011997
 5047 Fit       0.011345
 5048 Fit       0.010861
 5049 Fit       0.010455
 5050 Fit       0.010073
 5051 Fit       0.009675
 5052 Fit       0.012381
 5053 Fit       0.011423
 5054 Fit       0.010833
 5055 Fit       0.010413
 5056 Fit       0.010068
 5057 Fit       0.009745
 5058 Fit       0.009420
 5059 Fit       0.009086
 5060 Fit       0.011133
 5061 Fit       0.010517
 5062 Fit       0.010118
 5063 Fit       0.009813
 5064 Fit       0.009540
 5065 Fit       0.009272
 5066 Fit       0.009008
 5067 Fit       0.008780
 5068 Fit       0.008665
 5069 Fit       0.010796
 5070 Fit       0.010197
 5071 Fit       0.009825
 5072 Fit       0.009561
 5073 Fit       0.009335
 5074 Fit       0.009116
 5075 Fit       0.008902
 5076 Fit       0.008717
 5077 Fit       0.008618
 5078 Fit       0.008696
 5079 Fit       0.010127
 5080 Fit       0.009687
 5081 Fit       0.009400
 5082 Fit       0.009191
 5083 Fit       0.009005
 5084 Fit       0.008818
 5085 Fit       0.008639
 5086 Fit       0.008504
 5087 Fit       0.008468
 5088 Fit       0.008580
 5089 Fit       0.008231
 5090 Fit       0.009625
 5091 Fit       0.009400
 5092 Fit       0.009162
 5093 Fit       0.008977
 5094 Fit       0.008826
 5095 Fit       0.008677
 5096 Fit       0.008518
 5097 Fit       0.008365
 5098 Fit       0.008254
 5099 Fit       0.008216
 5100 Fit       0.007841
 5101 Fit       0.008324
 5102 Fit       0.008541
 5103 Fit       0.008658
 5104 Fit       0.008649
 5105 Fit       0.008578
 5106 Fit       0.008488
 5107 Fit       0.008373
 5108 Fit       0.008231
 5109 Fit       0.008080
 5110 Fit       0.007950
 5111 Fit       0.007597
 5112 Fit       0.007416
 5113 Fit       0.007696
 5114 Fit       0.007935
 5115 Fit       0.008091
 5116 Fit       0.008132
 5117 Fit       0.008081
 5118 Fit       0.007955
 5119 Fit       0.007782
 5120 Fit       0.007476
 5121 Fit       0.007305
 5122 Fit       0.007371
 5123 Fit       0.007611
 5124 Fit       0.007759
 5125 Fit       0.007689
 5126 Fit       0.007474
 5127 Fit       0.012807
 5128 Fit       0.013513
 5129 Fit       0.010990
 5130 Fit       0.011470
 5131 Fit       0.012007
 5132 Fit       0.012685
 5133 Fit       0.013616
 5134 Fit       0.010088
 5135 Fit       0.010521
 5136 Fit       0.010949
 5137 Fit       0.011432
 5138 Fit       0.012044
 5139 Fit       0.012906
 5140 Fit       0.009165
 5141 Fit       0.009567
 5142 Fit       0.009931
 5143 Fit       0.010283
 5144 Fit       0.010657
 5145 Fit       0.011105
 5146 Fit       0.011716
 5147 Fit       0.012662
 5148 Fit       0.008745
 5149 Fit       0.009027
 5150 Fit       0.009328
 5151 Fit       0.009624
 5152 Fit       0.009919
 5153 Fit       0.010236
 5154 Fit       0.010624
 5155 Fit       0.011179
 5156 Fit       0.012098
 5157 Fit       0.008659
 5158 Fit       0.008741
 5159 Fit       0.008940
 5160 Fit       0.009177
 5161 Fit       0.009421
 5162 Fit       0.009670
 5163 Fit       0.009948
 5164 Fit       0.010318
 5165 Fit       0.010903
 5166 Fit       0.008697
 5167 Fit       0.008588
 5168 Fit       0.008660
 5169 Fit       0.008821
 5170 Fit       0.009013
 5171 Fit       0.009211
 5172 Fit       0.009415
 5173 Fit       0.009657
 5174 Fit       0.010004
 5175 Fit       0.010576
 5176 Fit       0.008585
 5177 Fit       0.008437
 5178 Fit       0.008445
 5179 Fit       0.008558
 5180 Fit       0.008716
 5181 Fit       0.008883
 5182 Fit       0.009050
 5183 Fit       0.009239
 5184 Fit       0.009507
 5185 Fit       0.009929
 5186 Fit       0.008184
 5187 Fit       0.008194
 5188 Fit       0.008281
 5189 Fit       0.008414
 5190 Fit       0.008555
 5191 Fit       0.008687
 5192 Fit       0.008822
 5193 Fit       0.008995
 5194 Fit       0.009229
 5195 Fit       0.009467
 5196 Fit       0.007811
 5197 Fit       0.007889
 5198 Fit       0.007993
 5199 Fit       0.008123
 5200 Fit       0.008248
 5201 Fit       0.008349
 5202 Fit       0.008431
 5203 Fit       0.008504
 5204 Fit       0.008537
 5205 Fit       0.008476
 5206 Fit       0.007543
 5207 Fit       0.007697
 5208 Fit       0.007846
 5209 Fit       0.007957
 5210 Fit       0.008002
 5211 Fit       0.007976
 5212 Fit       0.007864
 5213 Fit       0.007692
 5214 Fit       0.007406
 5215 Fit       0.007589
 5216 Fit       0.007652
 5217 Fit       0.007534
 5218 Fit       0.007341
 5219 Fit       0.007272
 5220 Fit       0.007397
 5221 Fit       0.016301
 5222 Fit       0.015079
 5223 Fit       0.015616
 5224 Fit       0.016928
 5225 Fit       0.017978
 5226 Fit       0.017269
 5227 Fit       0.015721
 5228 Fit       0.014182
 5229 Fit       0.014503
 5230 Fit       0.015137
 5231 Fit       0.016120
 5232 Fit       0.017551
 5233 Fit       0.019219
 5234 Fit       0.020310
 5235 Fit       0.020066
 5236 Fit       0.014364
 5237 Fit       0.013527
 5238 Fit       0.013866
 5239 Fit       0.014298
 5240 Fit       0.014812
 5241 Fit       0.015521
 5242 Fit       0.016572
 5243 Fit       0.018117
 5244 Fit       0.020166
 5245 Fit       0.013481
 5246 Fit       0.013066
 5247 Fit       0.013558
 5248 Fit       0.013970
 5249 Fit       0.014300
 5250 Fit       0.014674
 5251 Fit       0.015213
 5252 Fit       0.016045
 5253 Fit       0.017336
 5254 Fit       0.019299
 5255 Fit       0.014268
 5256 Fit       0.014383
 5257 Fit       0.014613
 5258 Fit       0.015037
 5259 Fit       0.015748
 5260 Fit       0.016906
 5261 Fit       0.018782
 5262 Fit       0.014511
 5263 Fit       0.014405
 5264 Fit       0.014503
 5265 Fit       0.014810
 5266 Fit       0.015380
 5267 Fit       0.016341
 5268 Fit       0.017946
 5269 Fit       0.014472
 5270 Fit       0.014313
 5271 Fit       0.014403
 5272 Fit       0.014722
 5273 Fit       0.015329
 5274 Fit       0.016389
 5275 Fit       0.018244
 5276 Fit       0.014251
 5277 Fit       0.014148
 5278 Fit       0.014263
 5279 Fit       0.014592
 5280 Fit       0.015211
 5281 Fit       0.016306
 5282 Fit       0.014212
 5283 Fit       0.014011
 5284 Fit       0.014021
 5285 Fit       0.014208
 5286 Fit       0.014606
 5287 Fit       0.015325
 5288 Fit       0.016601
 5289 Fit       0.014101
 5290 Fit       0.013952
 5291 Fit       0.013975
 5292 Fit       0.014155
 5293 Fit       0.014535
 5294 Fit       0.015218
 5295 Fit       0.014147
 5296 Fit       0.014107
 5297 Fit       0.014207
 5298 Fit       0.014479
 5299 Fit       0.014996
 5300 Fit       0.016334
 5301 Fit       0.015075
 5302 Fit       0.015766
 5303 Fit       0.017361
 5304 Fit       0.018056
 5305 Fit       0.016963
 5306 Fit       0.015615
 5307 Fit       0.014149
 5308 Fit       0.014374
 5309 Fit       0.020441
 5310 Fit       0.019304
 5311 Fit       0.017602
 5312 Fit       0.016136
 5313 Fit       0.015121
 5314 Fit       0.014464
 5315 Fit       0.013463
 5316 Fit       0.020270
 5317 Fit       0.018195
 5318 Fit       0.016619
 5319 Fit       0.015533
 5320 Fit       0.014792
 5321 Fit       0.014247
 5322 Fit       0.013796
 5323 Fit       0.012958
 5324 Fit       0.019427
 5325 Fit       0.017431
 5326 Fit       0.016104
 5327 Fit       0.015237
 5328 Fit       0.014663
 5329 Fit       0.014253
 5330 Fit       0.013888
 5331 Fit       0.013449
 5332 Fit       0.018947
 5333 Fit       0.017028
 5334 Fit       0.015831
 5335 Fit       0.015083
 5336 Fit       0.014624
 5337 Fit       0.014356
 5338 Fit       0.014197
 5339 Fit       0.018142
 5340 Fit       0.016485
 5341 Fit       0.015482
 5342 Fit       0.014876
 5343 Fit       0.014536
 5344 Fit       0.014403
 5345 Fit       0.014468
 5346 Fit       0.018499
 5347 Fit       0.016575
 5348 Fit       0.015463
 5349 Fit       0.014817
 5350 Fit       0.014466
 5351 Fit       0.014346
 5352 Fit       0.014473
 5353 Fit       0.016516
 5354 Fit       0.015363
 5355 Fit       0.014701
 5356 Fit       0.014341
 5357 Fit       0.014201
 5358 Fit       0.014283
 5359 Fit       0.016826
 5360 Fit       0.015480
 5361 Fit       0.014715
 5362 Fit       0.014284
 5363 Fit       0.014075
 5364 Fit       0.014050
 5365 Fit       0.014241
 5366 Fit       0.016561
 5367 Fit       0.015301
 5368 Fit       0.014584
 5369 Fit       0.014183
 5370 Fit       0.013988
 5371 Fit       0.013959
 5372 Fit       0.014111
 5373 Fit       0.014923
 5374 Fit       0.014411
 5375 Fit       0.014141
 5376 Fit       0.014044
 5377 Fit       0.014094
 5378 Fit       0.014709
 5379 Fit       0.014489
 5380 Fit       0.003838
 5381 Fit       0.008236
 5382 Fit       0.011258
 5383 Fit       0.013507
 5384 Fit       0.004198
 5385 Fit       0.007867
 5386 Fit       0.010545
 5387 Fit       0.012630
 5388 Fit       0.014372
 5389 Fit      -0.000403
 5390 Fit       0.004093
 5391 Fit       0.007360
 5392 Fit       0.009845
 5393 Fit       0.011845
 5394 Fit       0.013583
 5395 Fit      -0.002065
 5396 Fit       0.002500
 5397 Fit       0.005898
 5398 Fit       0.008511
 5399 Fit       0.010620
 5400 Fit       0.012461
 5401 Fit      -0.004418
 5402 Fit       0.000333
 5403 Fit       0.003995
 5404 Fit       0.006844
 5405 Fit       0.009130
 5406 Fit       0.011078
 5407 Fit      -0.005523
 5408 Fit      -0.001190
 5409 Fit       0.002416
 5410 Fit       0.005337
 5411 Fit       0.007710
 5412 Fit       0.009699
 5413 Fit       0.011502
 5414 Fit      -0.004235
 5415 Fit      -0.000711
 5416 Fit       0.002513
 5417 Fit       0.005256
 5418 Fit       0.007534
 5419 Fit       0.009453
 5420 Fit       0.011170
 5421 Fit      -0.004402
 5422 Fit      -0.004207
 5423 Fit      -0.002486
 5424 Fit       0.000066
 5425 Fit       0.002770
 5426 Fit       0.005243
 5427 Fit       0.007355
 5428 Fit       0.009119
 5429 Fit       0.010591
 5430 Fit       0.000516
 5431 Fit      -0.000715
 5432 Fit      -0.000806
 5433 Fit       0.000405
 5434 Fit       0.002449
 5435 Fit       0.004698
 5436 Fit       0.006745
 5437 Fit       0.008418
 5438 Fit       0.009639
 5439 Fit       0.008826
 5440 Fit       0.008509
 5441 Fit       0.002853
 5442 Fit       0.001833
 5443 Fit       0.002150
 5444 Fit       0.003711
 5445 Fit       0.005726
 5446 Fit       0.007472
 5447 Fit       0.008554
 5448 Fit       0.007374
 5449 Fit       0.006729
 5450 Fit       0.005101
 5451 Fit       0.003956
 5452 Fit       0.004797
 5453 Fit       0.006579
 5454 Fit       0.005774
 5455 Fit       0.014179
 5456 Fit       0.011822
 5457 Fit       0.014708
 5458 Fit       0.012810
 5459 Fit       0.010473
 5460 Fit       0.007358
 5461 Fit       0.002883
 5462 Fit       0.013949
 5463 Fit       0.012145
 5464 Fit       0.010004
 5465 Fit       0.007275
 5466 Fit       0.003575
 5467 Fit       0.013289
 5468 Fit       0.011495
 5469 Fit       0.009453
 5470 Fit       0.006938
 5471 Fit       0.003658
 5472 Fit      -0.000817
 5473 Fit       0.012231
 5474 Fit       0.010346
 5475 Fit       0.008208
 5476 Fit       0.005579
 5477 Fit       0.002186
 5478 Fit      -0.002344
 5479 Fit       0.010876
 5480 Fit       0.008899
 5481 Fit       0.006598
 5482 Fit       0.003746
 5483 Fit       0.000102
 5484 Fit      -0.004607
 5485 Fit       0.011339
 5486 Fit       0.009513
 5487 Fit       0.007508
 5488 Fit       0.005130
 5489 Fit       0.002215
 5490 Fit      -0.001372
 5491 Fit      -0.005674
 5492 Fit       0.009284
 5493 Fit       0.007355
 5494 Fit       0.005075
 5495 Fit       0.002337
 5496 Fit      -0.000873
 5497 Fit      -0.004378
 5498 Fit       0.010429
 5499 Fit       0.008958
 5500 Fit       0.007191
 5501 Fit       0.005079
 5502 Fit       0.002612
 5503 Fit      -0.000079
 5504 Fit      -0.002611
 5505 Fit      -0.004298
 5506 Fit      -0.004425
 5507 Fit       0.009491
 5508 Fit       0.008270
 5509 Fit       0.006596
 5510 Fit       0.004553
 5511 Fit       0.002315
 5512 Fit       0.000294
 5513 Fit      -0.000875
 5514 Fit      -0.000711
 5515 Fit       0.008774
 5516 Fit       0.008447
 5517 Fit       0.007349
 5518 Fit       0.005601
 5519 Fit       0.003599
 5520 Fit       0.002073
 5521 Fit       0.001822
 5522 Fit       0.002937
 5523 Fit       0.007343
 5524 Fit       0.006496
 5525 Fit       0.004721
 5526 Fit       0.003938
 5527 Fit       0.005163
 5528 Fit       0.006788
 5529 Fit       0.005751
 5530 Fit       0.018283
 5531 Fit       0.019331
 5532 Fit       0.018156
 5533 Fit       0.017029
 5534 Fit       0.017178
 5535 Fit       0.018544
 5536 Fit       0.019587
 5537 Fit       0.020337
 5538 Fit       0.019371
 5539 Fit       0.018102
 5540 Fit       0.016748
 5541 Fit       0.015697
 5542 Fit       0.015378
 5543 Fit       0.016000
 5544 Fit       0.017364
 5545 Fit       0.020956
 5546 Fit       0.021310
 5547 Fit       0.020481
 5548 Fit       0.019395
 5549 Fit       0.018075
 5550 Fit       0.016643
 5551 Fit       0.015268
 5552 Fit       0.014171
 5553 Fit       0.013612
 5554 Fit       0.013795
 5555 Fit       0.014728
 5556 Fit       0.021576
 5557 Fit       0.020576
 5558 Fit       0.019275
 5559 Fit       0.017784
 5560 Fit       0.016197
 5561 Fit       0.014607
 5562 Fit       0.013146
 5563 Fit       0.012005
 5564 Fit       0.011421
 5565 Fit       0.011597
 5566 Fit       0.012582
 5567 Fit       0.020481
 5568 Fit       0.018835
 5569 Fit       0.017086
 5570 Fit       0.015268
 5571 Fit       0.013423
 5572 Fit       0.011635
 5573 Fit       0.010063
 5574 Fit       0.008943
 5575 Fit       0.008555
 5576 Fit       0.009124
 5577 Fit       0.010674
 5578 Fit       0.020127
 5579 Fit       0.018161
 5580 Fit       0.016174
 5581 Fit       0.014127
 5582 Fit       0.012012
 5583 Fit       0.009874
 5584 Fit       0.007831
 5585 Fit       0.006092
 5586 Fit       0.004964
 5587 Fit       0.004806
 5588 Fit       0.005904
 5589 Fit       0.018757
 5590 Fit       0.016435
 5591 Fit       0.014075
 5592 Fit       0.011594
 5593 Fit       0.008970
 5594 Fit       0.006248
 5595 Fit       0.003571
 5596 Fit       0.001222
 5597 Fit       0.016786
 5598 Fit       0.014139
 5599 Fit       0.011338
 5600 Fit       0.008291
 5601 Fit       0.004962
 5602 Fit       0.001383
 5603 Fit       0.016721
 5604 Fit       0.013731
 5605 Fit       0.010516
 5606 Fit       0.006927
 5607 Fit       0.002847
 5608 Fit       0.015576
 5609 Fit       0.012006
 5610 Fit       0.007981
 5611 Fit       0.003277
 5612 Fit       0.013592
 5613 Fit       0.009024
 5614 Fit       0.003555
 5615 Fit       0.018501
 5616 Fit       0.019546
 5617 Fit       0.019881
 5618 Fit       0.018835
 5619 Fit       0.017400
 5620 Fit       0.017212
 5621 Fit       0.018330
 5622 Fit       0.020541
 5623 Fit       0.016228
 5624 Fit       0.015572
 5625 Fit       0.015876
 5626 Fit       0.016911
 5627 Fit       0.018250
 5628 Fit       0.019524
 5629 Fit       0.021491
 5630 Fit       0.014964
 5631 Fit       0.014005
 5632 Fit       0.013820
 5633 Fit       0.014375
 5634 Fit       0.015458
 5635 Fit       0.016807
 5636 Fit       0.018211
 5637 Fit       0.019514
 5638 Fit       0.020609
 5639 Fit       0.012811
 5640 Fit       0.011826
 5641 Fit       0.011669
 5642 Fit       0.012263
 5643 Fit       0.013395
 5644 Fit       0.014830
 5645 Fit       0.016381
 5646 Fit       0.017926
 5647 Fit       0.019381
 5648 Fit       0.020657
 5649 Fit       0.021658
 5650 Fit       0.010902
 5651 Fit       0.009370
 5652 Fit       0.008850
 5653 Fit       0.009278
 5654 Fit       0.010407
 5655 Fit       0.011957
 5656 Fit       0.013702
 5657 Fit       0.015494
 5658 Fit       0.017256
 5659 Fit       0.018952
 5660 Fit       0.020548
 5661 Fit       0.006150
 5662 Fit       0.005153
 5663 Fit       0.005399
 5664 Fit       0.006566
 5665 Fit       0.008295
 5666 Fit       0.010292
 5667 Fit       0.012365
 5668 Fit       0.014408
 5669 Fit       0.016384
 5670 Fit       0.018304
 5671 Fit       0.020206
 5672 Fit       0.001897
 5673 Fit       0.004234
 5674 Fit       0.006841
 5675 Fit       0.009467
 5676 Fit       0.011988
 5677 Fit       0.014369
 5678 Fit       0.016640
 5679 Fit       0.018883
 5680 Fit       0.002243
 5681 Fit       0.005669
 5682 Fit       0.008844
 5683 Fit       0.011748
 5684 Fit       0.014425
 5685 Fit       0.016970
 5686 Fit      -0.000693
 5687 Fit       0.003696
 5688 Fit       0.007548
 5689 Fit       0.010945
 5690 Fit       0.014005
 5691 Fit       0.016876
 5692 Fit       0.004085
 5693 Fit       0.008496
 5694 Fit       0.012296
 5695 Fit       0.015703
 5696 Fit       0.004259
 5697 Fit       0.009366
 5698 Fit       0.013677
 5699 Fit       0.005594
 -----------------------------------------------------------------
 Leave Link  602 at Thu Nov  2 13:08:20 2023, MaxMem=   134217728 cpu:               0.4 elap:               0.4

 Test job not archived.
 1\1\GINC-LAC-417\FOpt\RHF\6-31G(d)\C5H11N1O2\RAHNAMOU\02-Nov-2023\0\\#
 HF/6-31G* SCF=tight Pop=MK iop(6/33=2) iop(6/42=6) opt\\mobley_1235151
 \\0,1\C,0.048514305,-0.6792902744,0.8555625846\C,1.3305163499,-0.41730
 44257,1.6445065726\C,2.5937421499,-0.6208258297,0.8057944524\C,3.87489
 65832,-0.3574044995,1.5995956465\C,5.117225274,-0.5685459975,0.7363321
 318\N,6.3313384363,-0.3022393032,1.54883333\O,6.801931817,-1.221620762
 5,2.1454604337\O,6.7317591331,0.8209421901,1.5798049079\H,-0.828884539
 4,-0.5272148206,1.4755787567\H,-0.0302425825,-0.0127063742,0.001616003
 7\H,0.0179091443,-1.6992610812,0.4834274831\H,1.3643030964,-1.07501135
 31,2.5097682191\H,1.3165153162,0.5987313921,2.0316318265\H,2.561108438
 2,0.0382244887,-0.0595361695\H,2.6089778347,-1.6379754177,0.419309632\
 H,3.9271595551,-1.0218981925,2.4559860625\H,3.879230729,0.6605632253,1
 .9754035114\H,5.1547066798,0.1204053973,-0.0924336232\H,5.2032922796,-
 1.5875683618,0.3943582381\\Version=ES64L-G16RevC.01\State=1-A\HF=-399.
 8058561\RMSD=8.971e-09\RMSF=2.024e-05\Dipole=-1.5709119,-0.2690785,-0.
 7866701\Quadrupole=-5.6923264,1.6286157,4.0637107,-1.3947635,-4.239984
 7,0.5756197\PG=C01 [X(C5H11N1O2)]\\@


 YOU ARE IN A MAZE OF TWISTY LITTLE PASSAGES.
 Job cpu time:       0 days  0 hours  0 minutes 50.6 seconds.
 Elapsed time:       0 days  0 hours  0 minutes 50.2 seconds.
 File lengths (MBytes):  RWF=    272 Int=      0 D2E=      0 Chk=     32 Scr=     32
 Normal termination of Gaussian 16 at Thu Nov  2 13:08:20 2023.
