 Entering Gaussian System, Link 0=/opt/software/Gaussian/g16-AVX2-C.01/g16/g16
 Input=mobley_1278715.com
 Output=mobley_1278715.log
 Initial command:
 /opt/software/Gaussian/g16-AVX2-C.01/g16/l1.exe "/mnt/gs21/scratch/rahnamou/Gau-28585.inp" -scrdir="/mnt/gs21/scratch/rahnamou/"
 Entering Link 1 = /opt/software/Gaussian/g16-AVX2-C.01/g16/l1.exe PID=     28604.
  
 Copyright (c) 1988-2019, Gaussian, Inc.  All Rights Reserved.
  
 This is part of the Gaussian(R) 16 program.  It is based on
 the Gaussian(R) 09 system (copyright 2009, Gaussian, Inc.),
 the Gaussian(R) 03 system (copyright 2003, Gaussian, Inc.),
 the Gaussian(R) 98 system (copyright 1998, Gaussian, Inc.),
 the Gaussian(R) 94 system (copyright 1995, Gaussian, Inc.),
 the Gaussian 92(TM) system (copyright 1992, Gaussian, Inc.),
 the Gaussian 90(TM) system (copyright 1990, Gaussian, Inc.),
 the Gaussian 88(TM) system (copyright 1988, Gaussian, Inc.),
 the Gaussian 86(TM) system (copyright 1986, Carnegie Mellon
 University), and the Gaussian 82(TM) system (copyright 1983,
 Carnegie Mellon University). Gaussian is a federally registered
 trademark of Gaussian, Inc.
  
 This software contains proprietary and confidential information,
 including trade secrets, belonging to Gaussian, Inc.
  
 This software is provided under written license and may be
 used, copied, transmitted, or stored only in accord with that
 written license.
  
 The following legend is applicable only to US Government
 contracts under FAR:
  
                    RESTRICTED RIGHTS LEGEND
  
 Use, reproduction and disclosure by the US Government is
 subject to restrictions as set forth in subparagraphs (a)
 and (c) of the Commercial Computer Software - Restricted
 Rights clause in FAR 52.227-19.
  
 Gaussian, Inc.
 340 Quinnipiac St., Bldg. 40, Wallingford CT 06492
  
  
 ---------------------------------------------------------------
 Warning -- This program may not be used in any manner that
 competes with the business of Gaussian, Inc. or will provide
 assistance to any competitor of Gaussian, Inc.  The licensee
 of this program is prohibited from giving any competitor of
 Gaussian, Inc. access to this program.  By using this program,
 the user acknowledges that Gaussian, Inc. is engaged in the
 business of creating and licensing software in the field of
 computational chemistry and represents and warrants to the
 licensee that it is not a competitor of Gaussian, Inc. and that
 it will not use this program in any manner prohibited above.
 ---------------------------------------------------------------
  

 Cite this work as:
 Gaussian 16, Revision C.01,
 M. J. Frisch, G. W. Trucks, H. B. Schlegel, G. E. Scuseria, 
 M. A. Robb, J. R. Cheeseman, G. Scalmani, V. Barone, 
 G. A. Petersson, H. Nakatsuji, X. Li, M. Caricato, A. V. Marenich, 
 J. Bloino, B. G. Janesko, R. Gomperts, B. Mennucci, H. P. Hratchian, 
 J. V. Ortiz, A. F. Izmaylov, J. L. Sonnenberg, D. Williams-Young, 
 F. Ding, F. Lipparini, F. Egidi, J. Goings, B. Peng, A. Petrone, 
 T. Henderson, D. Ranasinghe, V. G. Zakrzewski, J. Gao, N. Rega, 
 G. Zheng, W. Liang, M. Hada, M. Ehara, K. Toyota, R. Fukuda, 
 J. Hasegawa, M. Ishida, T. Nakajima, Y. Honda, O. Kitao, H. Nakai, 
 T. Vreven, K. Throssell, J. A. Montgomery, Jr., J. E. Peralta, 
 F. Ogliaro, M. J. Bearpark, J. J. Heyd, E. N. Brothers, K. N. Kudin, 
 V. N. Staroverov, T. A. Keith, R. Kobayashi, J. Normand, 
 K. Raghavachari, A. P. Rendell, J. C. Burant, S. S. Iyengar, 
 J. Tomasi, M. Cossi, J. M. Millam, M. Klene, C. Adamo, R. Cammi, 
 J. W. Ochterski, R. L. Martin, K. Morokuma, O. Farkas, 
 J. B. Foresman, and D. J. Fox, Gaussian, Inc., Wallingford CT, 2019.
 
 ******************************************
 Gaussian 16:  ES64L-G16RevC.01  3-Jul-2019
                 2-Nov-2023 
 ******************************************
 %chk=mobley_1278715.chk
 %mem=1GB
 %NProcShared=1
 Will use up to    1 processors via shared memory.
 -------------------------------------------------------
 #HF/6-31G* SCF=tight Pop=MK iop(6/33=2) iop(6/42=6) opt
 -------------------------------------------------------
 1/18=20,19=15,38=1/1,3;
 2/9=110,12=2,17=6,18=5,40=1/2;
 3/5=1,6=6,7=1,11=9,25=1,30=1,71=1/1,2,3;
 4//1;
 5/5=2,32=2,38=5/2;
 6/7=2,8=2,9=2,10=2,15=8,20=1,28=1,33=2,42=6/1,2;
 7//1,2,3,16;
 1/18=20,19=15/3(2);
 2/9=110/2;
 99//99;
 2/9=110/2;
 3/5=1,6=6,7=1,11=9,25=1,30=1,71=1/1,2,3;
 4/5=5,16=3,69=1/1;
 5/5=2,32=2,38=5/2;
 7//1,2,3,16;
 1/18=20,19=15/3(-5);
 2/9=110/2;
 6/7=2,8=2,9=2,10=2,15=8,19=2,20=1,28=1,33=2,42=6/1,2;
 99/9=1/99;
 --------------
 mobley_1278715
 --------------
 Symbolic Z-matrix:
 Charge =  0 Multiplicity = 1
 C                     0.206    -0.363    -0.655 
 C                    -0.205     0.363     0.655 
 CL                   -1.216     1.823     0.325 
 CL                   -1.166    -0.709     1.744 
 CL                    1.233     0.918     1.595 
 CL                    1.167     0.709    -1.744 
 CL                   -1.233    -0.918    -1.595 
 CL                    1.216    -1.823    -0.325 
 

 GradGradGradGradGradGradGradGradGradGradGradGradGradGradGradGradGradGrad
 Berny optimization.
 Initialization pass.
                           ----------------------------
                           !    Initial Parameters    !
                           ! (Angstroms and Degrees)  !
 --------------------------                            --------------------------
 ! Name  Definition              Value          Derivative Info.                !
 --------------------------------------------------------------------------------
 ! R1    R(1,2)                  1.5531         estimate D2E/DX2                !
 ! R2    R(1,6)                  1.8052         estimate D2E/DX2                !
 ! R3    R(1,7)                  1.8062         estimate D2E/DX2                !
 ! R4    R(1,8)                  1.8057         estimate D2E/DX2                !
 ! R5    R(2,3)                  1.8063         estimate D2E/DX2                !
 ! R6    R(2,4)                  1.8052         estimate D2E/DX2                !
 ! R7    R(2,5)                  1.8054         estimate D2E/DX2                !
 ! A1    A(2,1,6)              111.8468         estimate D2E/DX2                !
 ! A2    A(2,1,7)              111.8252         estimate D2E/DX2                !
 ! A3    A(2,1,8)              111.8284         estimate D2E/DX2                !
 ! A4    A(6,1,7)              107.0166         estimate D2E/DX2                !
 ! A5    A(6,1,8)              107.0158         estimate D2E/DX2                !
 ! A6    A(7,1,8)              106.995          estimate D2E/DX2                !
 ! A7    A(1,2,3)              111.8303         estimate D2E/DX2                !
 ! A8    A(1,2,4)              111.8468         estimate D2E/DX2                !
 ! A9    A(1,2,5)              111.8443         estimate D2E/DX2                !
 ! A10   A(3,2,4)              106.9927         estimate D2E/DX2                !
 ! A11   A(3,2,5)              107.0052         estimate D2E/DX2                !
 ! A12   A(4,2,5)              107.0067         estimate D2E/DX2                !
 ! D1    D(6,1,2,3)             60.0139         estimate D2E/DX2                !
 ! D2    D(6,1,2,4)           -180.0            estimate D2E/DX2                !
 ! D3    D(6,1,2,5)            -59.9863         estimate D2E/DX2                !
 ! D4    D(7,1,2,3)            -59.9991         estimate D2E/DX2                !
 ! D5    D(7,1,2,4)             59.9869         estimate D2E/DX2                !
 ! D6    D(7,1,2,5)           -179.9994         estimate D2E/DX2                !
 ! D7    D(8,1,2,3)           -179.9718         estimate D2E/DX2                !
 ! D8    D(8,1,2,4)            -59.9857         estimate D2E/DX2                !
 ! D9    D(8,1,2,5)             60.028          estimate D2E/DX2                !
 --------------------------------------------------------------------------------
 Trust Radius=3.00D-01 FncErr=1.00D-07 GrdErr=1.00D-07 EigMax=2.50D+02 EigMin=1.00D-04
 Number of steps in this run=     38 maximum allowed number of steps=    100.
 GradGradGradGradGradGradGradGradGradGradGradGradGradGradGradGradGradGrad

                          Input orientation:                          
 ---------------------------------------------------------------------
 Center     Atomic      Atomic             Coordinates (Angstroms)
 Number     Number       Type             X           Y           Z
 ---------------------------------------------------------------------
      1          6           0        0.206000   -0.363000   -0.655000
      2          6           0       -0.205000    0.363000    0.655000
      3         17           0       -1.216000    1.823000    0.325000
      4         17           0       -1.166000   -0.709000    1.744000
      5         17           0        1.233000    0.918000    1.595000
      6         17           0        1.167000    0.709000   -1.744000
      7         17           0       -1.233000   -0.918000   -1.595000
      8         17           0        1.216000   -1.823000   -0.325000
 ---------------------------------------------------------------------
                    Distance matrix (angstroms):
                    1          2          3          4          5
     1  C    0.000000
     2  C    1.553093   0.000000
     3  Cl   2.785871   1.806273   0.000000
     4  Cl   2.785193   1.805166   2.902944   0.000000
     5  Cl   2.785353   1.805400   2.903365   2.902504   0.000000
     6  Cl   1.805166   2.785193   3.346707   4.429419   3.346186
     7  Cl   1.806197   2.785722   3.346606   3.346205   4.430367
     8  Cl   1.805713   2.785361   4.430625   3.345995   3.346606
                    6          7          8
     6  Cl   0.000000
     7  Cl   2.903331   0.000000
     8  Cl   2.902927   2.903365   0.000000
 Stoichiometry    C2Cl6
 Framework group  C1[X(C2Cl6)]
 Deg. of freedom    18
 Full point group                 C1      NOp   1
 Largest Abelian subgroup         C1      NOp   1
 Largest concise Abelian subgroup C1      NOp   1
                         Standard orientation:                         
 ---------------------------------------------------------------------
 Center     Atomic      Atomic             Coordinates (Angstroms)
 Number     Number       Type             X           Y           Z
 ---------------------------------------------------------------------
      1          6           0        0.776625   -0.000084    0.000636
      2          6           0       -0.776467   -0.000415   -0.000348
      3         17           0       -1.448974    1.466318    0.811472
      4         17           0       -1.447149   -0.030141   -1.676036
      5         17           0       -1.448472   -1.436590    0.862946
      6         17           0        1.447307    0.029643    1.676323
      7         17           0        1.448366    1.436927   -0.863141
      8         17           0        1.448867   -1.465981   -0.811667
 ---------------------------------------------------------------------
 Rotational constants (GHZ):           0.8574130           0.6745980           0.6744911
 Standard basis: 6-31G(d) (6D, 7F)
 There are   144 symmetry adapted cartesian basis functions of A   symmetry.
 There are   144 symmetry adapted basis functions of A   symmetry.
   144 basis functions,   368 primitive gaussians,   144 cartesian basis functions
    57 alpha electrons       57 beta electrons
       nuclear repulsion energy      1001.7339985305 Hartrees.
 NAtoms=    8 NActive=    8 NUniq=    8 SFac= 1.00D+00 NAtFMM=   60 NAOKFM=F Big=F
 Integral buffers will be    131072 words long.
 Raffenetti 1 integral format.
 Two-electron integral symmetry is turned on.
 One-electron integrals computed using PRISM.
 NBasis=   144 RedAO= T EigKep=  6.10D-03  NBF=   144
 NBsUse=   144 1.00D-06 EigRej= -1.00D+00 NBFU=   144
 ExpMin= 1.43D-01 ExpMax= 2.52D+04 ExpMxC= 3.78D+03 IAcc=3 IRadAn=         5 AccDes= 0.00D+00
 Harris functional with IExCor=  205 and IRadAn=       5 diagonalized for initial guess.
 HarFok:  IExCor=  205 AccDes= 0.00D+00 IRadAn=         5 IDoV= 1 UseB2=F ITyADJ=14
 ICtDFT=  3500011 ScaDFX=  1.000000  1.000000  1.000000  1.000000
 FoFCou: FMM=F IPFlag=           0 FMFlag=      100000 FMFlg1=           0
         NFxFlg=           0 DoJE=T BraDBF=F KetDBF=T FulRan=T
         wScrn=  0.000000 ICntrl=       500 IOpCl=  0 I1Cent=   200000004 NGrid=           0
         NMat0=    1 NMatS0=      1 NMatT0=    0 NMatD0=    1 NMtDS0=    0 NMtDT0=    0
 Petite list used in FoFCou.
 Keep R1 ints in memory in canonical form, NReq=56027247.
 Requested convergence on RMS density matrix=1.00D-08 within 128 cycles.
 Requested convergence on MAX density matrix=1.00D-06.
 Requested convergence on             energy=1.00D-06.
 No special actions if energy rises.
 SCF Done:  E(RHF) =  -2832.54653411     A.U. after   12 cycles
            NFock= 12  Conv=0.11D-08     -V/T= 2.0005
 SCF density gives NOpUse=  1 NOpAll=  1.

 **********************************************************************

            Population analysis using the SCF Density.

 **********************************************************************

 Orbital symmetries:
 BldTbl:  Degeneracy threshold= 1.00D-02
       Occupied  (A) (A) (A) (A) (A) (A) (A) (A) (A) (A) (A) (A)
                 (A) (A) (A) (A) (A) (A) (A) (A) (A) (A) (A) (A)
                 (A) (A) (A) (A) (A) (A) (A) (A) (A) (A) (A) (A)
                 (A) (A) (A) (A) (A) (A) (A) (A) (A) (A) (A) (A)
                 (A) (A) (A) (A) (A) (A) (A) (A) (A)
       Virtual   (A) (A) (A) (A) (A) (A) (A) (A) (A) (A) (A) (A)
                 (A) (A) (A) (A) (A) (A) (A) (A) (A) (A) (A) (A)
                 (A) (A) (A) (A) (A) (A) (A) (A) (A) (A) (A) (A)
                 (A) (A) (A) (A) (A) (A) (A) (A) (A) (A) (A) (A)
                 (A) (A) (A) (A) (A) (A) (A) (A) (A) (A) (A) (A)
                 (A) (A) (A) (A) (A) (A) (A) (A) (A) (A) (A) (A)
                 (A) (A) (A) (A) (A) (A) (A) (A) (A) (A) (A) (A)
                 (A) (A) (A)
 The electronic state is 1-A.
 Alpha  occ. eigenvalues -- -104.87057-104.87053-104.87052-104.87052-104.87048
 Alpha  occ. eigenvalues -- -104.87046 -11.48355 -11.48300 -10.60391 -10.60388
 Alpha  occ. eigenvalues --  -10.60387 -10.60385 -10.60381 -10.60379  -8.07327
 Alpha  occ. eigenvalues --   -8.07324  -8.07323  -8.07322  -8.07317  -8.07315
 Alpha  occ. eigenvalues --   -8.06933  -8.06930  -8.06930  -8.06928  -8.06927
 Alpha  occ. eigenvalues --   -8.06924  -8.06923  -8.06923  -8.06922  -8.06921
 Alpha  occ. eigenvalues --   -8.06917  -8.06915  -1.29793  -1.22201  -1.13707
 Alpha  occ. eigenvalues --   -1.13695  -1.11703  -1.11694  -0.96497  -0.79542
 Alpha  occ. eigenvalues --   -0.69628  -0.67388  -0.67382  -0.61113  -0.61111
 Alpha  occ. eigenvalues --   -0.52188  -0.52181  -0.51813  -0.50933  -0.50932
 Alpha  occ. eigenvalues --   -0.49339  -0.49011  -0.49006  -0.47300  -0.45949
 Alpha  occ. eigenvalues --   -0.45947  -0.45570
 Alpha virt. eigenvalues --    0.09895   0.10121   0.10140   0.10301   0.18880
 Alpha virt. eigenvalues --    0.18896   0.27332   0.39544   0.47045   0.47047
 Alpha virt. eigenvalues --    0.47189   0.54530   0.54540   0.55498   0.57151
 Alpha virt. eigenvalues --    0.57152   0.57460   0.57462   0.60654   0.61244
 Alpha virt. eigenvalues --    0.65112   0.65841   0.65844   0.66117   0.69013
 Alpha virt. eigenvalues --    0.69020   0.69515   0.69516   0.70162   0.70164
 Alpha virt. eigenvalues --    0.72721   0.73386   0.80102   0.80115   0.86422
 Alpha virt. eigenvalues --    0.92092   0.92098   0.99632   0.99633   1.09245
 Alpha virt. eigenvalues --    1.09506   1.09511   1.09843   1.10722   1.10730
 Alpha virt. eigenvalues --    1.10752   1.10756   1.11121   1.12538   1.13951
 Alpha virt. eigenvalues --    1.13956   1.15313   1.15315   1.15705   1.17278
 Alpha virt. eigenvalues --    1.21464   1.29309   1.29320   1.32526   1.32543
 Alpha virt. eigenvalues --    1.34195   1.34445   1.34462   1.48289   1.50483
 Alpha virt. eigenvalues --    1.56494   1.56509   1.56823   1.83390   1.86824
 Alpha virt. eigenvalues --    1.86833   2.04754   2.17136   2.17153   2.40716
 Alpha virt. eigenvalues --    2.40765   2.45836   2.45887   2.81409   4.27519
 Alpha virt. eigenvalues --    4.54783   4.67987   4.67989   4.69163   4.69915
 Alpha virt. eigenvalues --    4.69922   4.77923
          Condensed to atoms (all electrons):
               1          2          3          4          5          6
     1  C    5.682961   0.122528  -0.057194  -0.057224  -0.057217   0.213306
     2  C    0.122528   5.683051   0.213492   0.213314   0.213340  -0.057229
     3  Cl  -0.057194   0.213492  16.919413  -0.077379  -0.077307  -0.007417
     4  Cl  -0.057224   0.213314  -0.077379  16.919172  -0.077420   0.002825
     5  Cl  -0.057217   0.213340  -0.077307  -0.077420  16.919160  -0.007427
     6  Cl   0.213306  -0.057229  -0.007417   0.002825  -0.007427  16.918934
     7  Cl   0.213481  -0.057202  -0.007437  -0.007437   0.002821  -0.077294
     8  Cl   0.213386  -0.057219   0.002821  -0.007441  -0.007418  -0.077351
               7          8
     1  C    0.213481   0.213386
     2  C   -0.057202  -0.057219
     3  Cl  -0.007437   0.002821
     4  Cl  -0.007437  -0.007441
     5  Cl   0.002821  -0.007418
     6  Cl  -0.077294  -0.077351
     7  Cl  16.919303  -0.077322
     8  Cl  -0.077322  16.919243
 Mulliken charges:
               1
     1  C   -0.274027
     2  C   -0.274075
     3  Cl   0.091008
     4  Cl   0.091588
     5  Cl   0.091468
     6  Cl   0.091652
     7  Cl   0.091085
     8  Cl   0.091301
 Sum of Mulliken charges =  -0.00000
 Mulliken charges with hydrogens summed into heavy atoms:
               1
     1  C   -0.274027
     2  C   -0.274075
     3  Cl   0.091008
     4  Cl   0.091588
     5  Cl   0.091468
     6  Cl   0.091652
     7  Cl   0.091085
     8  Cl   0.091301
 DipInt: DoE/N= T F RetVal/Mat= T F Init=T NMatP=  1 IDeriv=0 Min/MaxMlt=  0  4
 Entering OneElI...
 OneElI was handed   134162296 working-precision words.
 Multipole integrals L=0 to 4 MinM= 0 MaxM= 0.
 Requested accuracy = 0.1000D-12
 ShPair: Thresh= 1.00D-13 NBox=     0 BxSize= 0.00D+00 RnKept= 8.37D+00
         NSMCal=                  741 NSMKep=                 675
 PrmmSu-InSpLW:  IPartL=    0 NPrtUS=    1 NPrtUL=    1 DoSpLW=F IThBeg=    0 IThEnd=    0 NThAct=    1.
 PrSmSu:  IncTry=   512 NBBP=            675 NTPThr=   100 NPartT=    1 Incr=           6 LDynOK=F GPUOK=F.
 PrsmSu:  NPrtUS=   1 ThrOK=F IAlg=2 LenDen=           0 ISkipM=0 DoSpLW=F IThBeg=    0 IThEnd=    0.
 Prism:   IPart=     0 DynPar=F LinDyn=F Incr=           6.
 PRISM was handed   134064214 working-precision words and   675 shell-pairs
 IPart=  0 NShTot=         675 NBatch=          28 AvBLen=        24.1
 PrsmSu-ThDecC:  IPartSL=    0    0 NPrtUSL=    1    1 IThBeg=    0 IThEnd=    0 CPU=   -1 GPU=   -1 NThAct=    1.
 PrSmSu:  NxtVal=              7.
 Electronic moments (au):
       -114.00000000          0.00008714         -0.00142193          0.00033516
       -855.30826900       -576.08614729       -575.87402816          0.00129257
          0.00474494         -0.00096411          0.02331206         -0.49968277
         -0.18260707          0.05486623         -0.04715139         -0.12677175
         -0.29731134          0.09281901          0.10043768          0.23510912
      -8669.94748248      -5691.72388695      -5690.96310849          1.42456879
          4.44818968        114.28708109          0.77109233      -2158.02376468
         -0.38811399      -4589.04991637      -4582.31971246      -1895.09007897
         -0.66933916       2156.41756776       -115.04215954
 Electronic spatial extent (au):  <R**2>=           2007.2684
 DipInt: DoE/N= F T RetVal/Mat= T F Init=T NMatP=  1 IDeriv=0 Min/MaxMlt=  0  4
 Nuclear    moments (au):
        114.00000000          0.00000000          0.00000000          0.00000000
        789.76255014        511.74060161        511.53454651         -0.00000000
          0.00000000         -0.00000000         -0.02889031          0.48850623
          0.18423269         -0.05987669          0.03303011          0.12966379
          0.30220557         -0.10074692         -0.10367784         -0.22848084
       5776.98394038       3851.09934890       3851.24722403         -1.43297806
         -4.45678880       -117.32813345         -0.80862797       2215.58523794
          0.38300311       3835.21192498       3828.52752493       1281.63133705
          0.67491803      -2213.87901572        118.11011591
 Total      moments (au):
          0.00000000          0.00008714         -0.00142193          0.00033516
        -65.54571887        -64.34554567        -64.33948164          0.00129257
          0.00474494         -0.00096411         -0.00557824         -0.01117654
          0.00162562         -0.00501046         -0.01412128          0.00289204
          0.00489424         -0.00792791         -0.00324016          0.00662828
      -2892.96354210      -1840.62453805      -1839.71588446         -0.00840927
         -0.00859911         -3.04105237         -0.03753565         57.56147326
         -0.00511088       -753.83799139       -753.79218754       -613.45874192
          0.00557887        -57.46144796          3.06795637
 Traceless Quadrup. (au):
         -0.80213681          0.39803639          0.40410042          0.00129257
          0.00474494         -0.00096411
 Charge=              0.0000 electrons
 Dipole moment (field-independent basis, Debye):
    X=              0.0002    Y=             -0.0036    Z=              0.0009  Tot=              0.0037
 Quadrupole moment (field-independent basis, Debye-Ang):
   XX=            -88.1612   YY=            -86.5470   ZZ=            -86.5388
   XY=              0.0017   XZ=              0.0064   YZ=             -0.0013
 Traceless Quadrupole moment (field-independent basis, Debye-Ang):
   XX=             -1.0789   YY=              0.5354   ZZ=              0.5435
   XY=              0.0017   XZ=              0.0064   YZ=             -0.0013
 Octapole moment (field-independent basis, Debye-Ang**2):
  XXX=             -0.0040  YYY=             -0.0080  ZZZ=              0.0012  XYY=             -0.0036
  XXY=             -0.0101  XXZ=              0.0021  XZZ=              0.0035  YZZ=             -0.0056
  YYZ=             -0.0023  XYZ=              0.0047
 Hexadecapole moment (field-independent basis, Debye-Ang**3):
 XXXX=          -1089.6288 YYYY=           -693.2675 ZZZZ=           -692.9252 XXXY=             -0.0032
 XXXZ=             -0.0032 YYYX=             -1.1454 YYYZ=             -0.0141 ZZZX=             21.6804
 ZZZY=             -0.0019 XXYY=           -283.9315 XXZZ=           -283.9143 YYZZ=           -231.0580
 XXYZ=              0.0021 YYXZ=            -21.6427 ZZXY=              1.1555
 N-N= 1.001733998530D+03 E-N=-8.741527765283D+03  KE= 2.831045081978D+03
 Entering OneElI...
 OneElI was handed   134172384 working-precision words.
 Calculate electrostatic properties
    NBasis =   144  MinDer = 0  MaxDer = 0
    NGrid  =     8  NMatD  =   1
 Requested accuracy = 0.1000D-12
 ShPair: Thresh= 1.00D-13 NBox=     0 BxSize= 0.00D+00 RnKept= 8.37D+00
         NSMCal=                  741 NSMKep=                 633
 PrmmSu-InSpLW:  IPartL=    0 NPrtUS=    1 NPrtUL=    1 DoSpLW=F IThBeg=    0 IThEnd=    0 NThAct=    1.
 PrSmSu:  IncTry=   512 NBBP=           5064 NTPThr=   100 NPartT=    1 Incr=          50 LDynOK=F GPUOK=F.
 PrsmSu:  NPrtUS=   1 ThrOK=F IAlg=2 LenDen=           0 ISkipM=0 DoSpLW=F IThBeg=    0 IThEnd=    0.
 Prism:   IPart=     0 DynPar=F LinDyn=F Incr=          50.
 PRISM was handed   134080352 working-precision words and   633 shell-pairs
 IPart=  0 NShTot=        5064 NBatch=         633 AvBLen=         8.0
 PrsmSu-ThDecC:  IPartSL=    0    0 NPrtUSL=    1    1 IThBeg=    0 IThEnd=    0 CPU=   -1 GPU=   -1 NThAct=    1.
 PrSmSu:  NxtVal=             51.
 --------------------------------------------------------
       Center         ----      EFG at Nuclei      ----
                      3XX-RR        3YY-RR        3ZZ-RR
 --------------------------------------------------------
     1   Atom        0.197782     -0.099242     -0.098540
     2   Atom        0.197726     -0.099194     -0.098532
     3   Atom        1.125803     -2.079060      0.953257
     4   Atom        1.130281      2.289221     -3.419502
     5   Atom        1.126564     -1.903299      0.776734
     6   Atom        1.130874      2.289168     -3.420042
     7   Atom        1.128486     -1.904096      0.775610
     8   Atom        1.126445     -2.076856      0.950411
 --------------------------------------------------------
                        XY            XZ            YZ
 --------------------------------------------------------
     1   Atom       -0.000063      0.000468      0.000185
     2   Atom        0.000320      0.000450     -0.000319
     3   Atom        2.152256      1.190952     -2.418491
     4   Atom       -0.043577     -2.454656     -0.101711
     5   Atom       -2.107207      1.266441      2.520242
     6   Atom       -0.043542     -2.454266     -0.100921
     7   Atom       -2.106320      1.265962      2.521956
     8   Atom        2.150671      1.191757     -2.420084
 --------------------------------------------------------


 ---------------------------------------------------------------------------------
              Nuclear Quadrupole Coupling Constant in Principal Axis System
 ---------------------------------------------------------------------------------

       Atom             a.u.   MegaHertz   Gauss  10(-4) cm-1        Axes

              Baa    -4.4940   -86.217   -30.764   -28.759 -0.4010  0.8016  0.4435
     3 Cl(35) Bbb     2.2025    42.254    15.077    14.094  0.9161  0.3508  0.1942
              Bcc     2.2915    43.963    15.687    14.664 -0.0001 -0.4842  0.8750
 
              Baa    -4.4931   -86.200   -30.758   -28.753  0.4001  0.0163  0.9163
     4 Cl(35) Bbb     2.2021    42.247    15.075    14.092  0.9165 -0.0086 -0.4000
              Bcc     2.2910    43.953    15.684    14.661  0.0013  0.9998 -0.0184
 
              Baa    -4.4932   -86.201   -30.759   -28.753  0.4008  0.7853 -0.4719
     5 Cl(35) Bbb     2.2021    42.247    15.075    14.092  0.9162 -0.3449  0.2042
              Bcc     2.2911    43.954    15.684    14.661  0.0024  0.5142  0.8577
 
              Baa    -4.4932   -86.201   -30.759   -28.754  0.4000  0.0162  0.9164
     6 Cl(35) Bbb     2.2022    42.249    15.076    14.093  0.9165 -0.0053 -0.4000
              Bcc     2.2910    43.952    15.683    14.661 -0.0016  0.9999 -0.0170
 
              Baa    -4.4941   -86.219   -30.765   -28.760  0.4005  0.7853 -0.4721
     7 Cl(35) Bbb     2.2026    42.256    15.078    14.095  0.9163 -0.3427  0.2073
              Bcc     2.2915    43.963    15.687    14.664 -0.0010  0.5156  0.8568
 
              Baa    -4.4934   -86.206   -30.760   -28.755 -0.4008  0.8014  0.4440
     8 Cl(35) Bbb     2.2022    42.249    15.076    14.093  0.9162  0.3515  0.1926
              Bcc     2.2912    43.957    15.685    14.662  0.0017 -0.4840  0.8751
 

 ---------------------------------------------------------------------------------

 No NMR shielding tensors so no spin-rotation constants.
 Leave Link  601 at Thu Nov  2 13:05:30 2023, MaxMem=   134217728 cpu:               0.1 elap:               0.1
 FitSet:  NAtFit=     8 NAtPot=     8 NAtFrz=     0 MDM=    12 TotChg=   0.00000
 Merz-Kollman atomic radii used.
 Atom Element Radius
    1     6    1.50
    2     6    1.50
    3    17    1.70
    4    17    1.70
    5    17    1.70
    6    17    1.70
    7    17    1.70
    8    17    1.70
 Generate VDW surfaces: Layer= 4 Dens= 6 Start= 1.400 Inc= 0.200

 **********************************************************************

            Electrostatic Properties Using The SCF Density.

 **********************************************************************

       Atomic Center    1 is at   0.776625 -0.000084  0.000636
       Atomic Center    2 is at  -0.776467 -0.000415 -0.000348
       Atomic Center    3 is at  -1.448974  1.466318  0.811472
       Atomic Center    4 is at  -1.447149 -0.030141 -1.676036
       Atomic Center    5 is at  -1.448472 -1.436590  0.862946
       Atomic Center    6 is at   1.447307  0.029643  1.676323
       Atomic Center    7 is at   1.448366  1.436927 -0.863141
       Atomic Center    8 is at   1.448867 -1.465981 -0.811667
      ESP Fit Center    9 is at  -1.448974  1.466318  3.191472
      ESP Fit Center   10 is at  -1.035691  1.466318  3.155314
      ESP Fit Center   11 is at  -1.242333  1.824231  3.155314
      ESP Fit Center   12 is at  -1.655615  1.824231  3.155314
      ESP Fit Center   13 is at  -1.862257  1.466318  3.155314
      ESP Fit Center   14 is at  -1.655615  1.108405  3.155314
      ESP Fit Center   15 is at  -1.242333  1.108405  3.155314
      ESP Fit Center   16 is at  -0.634966  1.466318  3.047940
      ESP Fit Center   17 is at  -0.744023  1.873322  3.047940
      ESP Fit Center   18 is at  -1.041970  2.171269  3.047940
      ESP Fit Center   19 is at  -1.448974  2.280326  3.047940
      ESP Fit Center   20 is at  -1.855978  2.171269  3.047940
      ESP Fit Center   21 is at  -2.153926  1.873322  3.047940
      ESP Fit Center   22 is at  -2.262982  1.466318  3.047940
      ESP Fit Center   23 is at  -2.153926  1.059314  3.047940
      ESP Fit Center   24 is at  -1.855978  0.761366  3.047940
      ESP Fit Center   25 is at  -1.448974  0.652310  3.047940
      ESP Fit Center   26 is at  -1.041970  0.761366  3.047940
      ESP Fit Center   27 is at  -0.744023  1.059314  3.047940
      ESP Fit Center   28 is at  -0.258974  1.466318  2.872612
      ESP Fit Center   29 is at  -0.330740  1.873322  2.872612
      ESP Fit Center   30 is at  -0.537381  2.231235  2.872612
      ESP Fit Center   31 is at  -0.853974  2.496888  2.872612
      ESP Fit Center   32 is at  -1.242333  2.638239  2.872612
      ESP Fit Center   33 is at  -1.655615  2.638239  2.872612
      ESP Fit Center   34 is at  -2.043974  2.496888  2.872612
      ESP Fit Center   35 is at  -2.360567  2.231235  2.872612
      ESP Fit Center   36 is at  -2.567208  1.873322  2.872612
      ESP Fit Center   37 is at  -2.638974  1.466318  2.872612
      ESP Fit Center   38 is at  -2.567208  1.059314  2.872612
      ESP Fit Center   39 is at  -2.360567  0.701401  2.872612
      ESP Fit Center   40 is at  -2.043974  0.435748  2.872612
      ESP Fit Center   41 is at  -1.655615  0.294397  2.872612
      ESP Fit Center   42 is at  -1.242333  0.294397  2.872612
      ESP Fit Center   43 is at  -0.853974  0.435748  2.872612
      ESP Fit Center   44 is at  -0.537381  0.701401  2.872612
      ESP Fit Center   45 is at   0.024130  1.879062  2.634658
      ESP Fit Center   46 is at  -0.141854  2.261195  2.634658
      ESP Fit Center   47 is at  -0.404781  2.584376  2.634658
      ESP Fit Center   48 is at  -0.745151  2.824635  2.634658
      ESP Fit Center   49 is at  -1.137720  2.964154  2.634658
      ESP Fit Center   50 is at  -1.553374  2.992586  2.634658
      ESP Fit Center   51 is at  -1.961285  2.907821  2.634658
      ESP Fit Center   52 is at  -2.331200  2.716147  2.634658
      ESP Fit Center   53 is at  -2.635684  2.431778  2.634658
      ESP Fit Center   54 is at  -2.852156  2.075806  2.634658
      ESP Fit Center   55 is at  -2.964560  1.674630  2.634658
      ESP Fit Center   56 is at  -2.964560  1.258005  2.634658
      ESP Fit Center   57 is at  -2.852156  0.856830  2.634658
      ESP Fit Center   58 is at  -2.635684  0.500858  2.634658
      ESP Fit Center   59 is at  -2.331200  0.216489  2.634658
      ESP Fit Center   60 is at  -0.745151  0.108000  2.634658
      ESP Fit Center   61 is at   0.180284  2.284562  2.341306
      ESP Fit Center   62 is at  -0.052333  2.638239  2.341306
      ESP Fit Center   63 is at  -0.360243  2.928737  2.341306
      ESP Fit Center   64 is at  -0.726847  3.140396  2.341306
      ESP Fit Center   65 is at  -1.132381  3.261805  2.341306
      ESP Fit Center   66 is at  -1.554983  3.286419  2.341306
      ESP Fit Center   67 is at  -1.971870  3.212911  2.341306
      ESP Fit Center   68 is at  -2.360567  3.045243  2.341306
      ESP Fit Center   69 is at  -2.700120  2.792455  2.341306
      ESP Fit Center   70 is at  -2.972224  2.468175  2.341306
      ESP Fit Center   71 is at  -3.162208  2.089884  2.341306
      ESP Fit Center   72 is at  -3.259832  1.677977  2.341306
      ESP Fit Center   73 is at  -3.259832  1.254659  2.341306
      ESP Fit Center   74 is at  -3.162208  0.842752  2.341306
      ESP Fit Center   75 is at  -2.972224  0.464461  2.341306
      ESP Fit Center   76 is at  -2.700120  0.140181  2.341306
      ESP Fit Center   77 is at   0.445127  2.279141  2.001472
      ESP Fit Center   78 is at   0.242735  2.643782  2.001472
      ESP Fit Center   79 is at  -0.028917  2.960218  2.001472
      ESP Fit Center   80 is at  -0.358705  3.215493  2.001472
      ESP Fit Center   81 is at  -0.733129  3.399157  2.001472
      ESP Fit Center   82 is at  -1.136860  3.503690  2.001472
      ESP Fit Center   83 is at  -1.553369  3.524813  2.001472
      ESP Fit Center   84 is at  -1.965604  3.461661  2.001472
      ESP Fit Center   85 is at  -2.356688  3.316819  2.001472
      ESP Fit Center   86 is at  -2.710611  3.096218  2.001472
      ESP Fit Center   87 is at  -3.012881  2.808888  2.001472
      ESP Fit Center   88 is at  -3.251125  2.466593  2.001472
      ESP Fit Center   89 is at  -3.415589  2.083347  2.001472
      ESP Fit Center   90 is at  -3.499540  1.674840  2.001472
      ESP Fit Center   91 is at  -3.499540  1.257796  2.001472
      ESP Fit Center   92 is at  -3.415589  0.849288  2.001472
      ESP Fit Center   93 is at  -3.251125  0.466042  2.001472
      ESP Fit Center   94 is at  -3.012881  0.123748  2.001472
      ESP Fit Center   95 is at   0.627291  2.297529  1.625480
      ESP Fit Center   96 is at   0.432463  2.675444  1.625480
      ESP Fit Center   97 is at   0.169634  3.009658  1.625480
      ESP Fit Center   98 is at  -0.151695  3.288091  1.625480
      ESP Fit Center   99 is at  -0.519912  3.500681  1.625480
      ESP Fit Center  100 is at  -0.921707  3.639744  1.625480
      ESP Fit Center  101 is at  -1.342559  3.700253  1.625480
      ESP Fit Center  102 is at  -1.767257  3.680022  1.625480
      ESP Fit Center  103 is at  -2.180451  3.579782  1.625480
      ESP Fit Center  104 is at  -2.567208  3.403156  1.625480
      ESP Fit Center  105 is at  -2.913549  3.156528  1.625480
      ESP Fit Center  106 is at  -3.206957  2.848811  1.625480
      ESP Fit Center  107 is at  -3.436827  2.491127  1.625480
      ESP Fit Center  108 is at  -3.594850  2.096404  1.625480
      ESP Fit Center  109 is at  -3.675316  1.678908  1.625480
      ESP Fit Center  110 is at  -3.675316  1.253728  1.625480
      ESP Fit Center  111 is at  -3.594850  0.836232  1.625480
      ESP Fit Center  112 is at  -3.436827  0.441509  1.625480
      ESP Fit Center  113 is at  -3.206957  0.083825  1.625480
      ESP Fit Center  114 is at   0.563095  2.668473  1.224755
      ESP Fit Center  115 is at   0.316107  3.008423  1.224755
      ESP Fit Center  116 is at   0.012388  3.298808  1.224755
      ESP Fit Center  117 is at  -0.338301  3.530295  1.224755
      ESP Fit Center  118 is at  -0.724687  3.695445  1.224755
      ESP Fit Center  119 is at  -1.134352  3.788948  1.224755
      ESP Fit Center  120 is at  -1.554130  3.807800  1.224755
      ESP Fit Center  121 is at  -1.970528  3.751395  1.224755
      ESP Fit Center  122 is at  -2.370163  3.621546  1.224755
      ESP Fit Center  123 is at  -2.740190  3.422426  1.224755
      ESP Fit Center  124 is at  -3.068716  3.160435  1.224755
      ESP Fit Center  125 is at  -3.345182  2.843994  1.224755
      ESP Fit Center  126 is at  -3.560703  2.483273  1.224755
      ESP Fit Center  127 is at  -3.708351  2.089866  1.224755
      ESP Fit Center  128 is at  -3.783381  1.676418  1.224755
      ESP Fit Center  129 is at  -3.783381  1.256217  1.224755
      ESP Fit Center  130 is at  -3.708351  0.842769  1.224755
      ESP Fit Center  131 is at  -3.560703  0.449363  1.224755
      ESP Fit Center  132 is at  -3.345182  0.088642  1.224755
      ESP Fit Center  133 is at   0.374212  2.996152  0.811472
      ESP Fit Center  134 is at   0.080860  3.289504  0.811472
      ESP Fit Center  135 is at  -0.258974  3.527458  0.811472
      ESP Fit Center  136 is at  -0.634966  3.702786  0.811472
      ESP Fit Center  137 is at  -1.035691  3.810160  0.811472
      ESP Fit Center  138 is at  -1.448974  3.846318  0.811472
      ESP Fit Center  139 is at  -1.862257  3.810160  0.811472
      ESP Fit Center  140 is at  -2.262982  3.702786  0.811472
      ESP Fit Center  141 is at  -2.638974  3.527458  0.811472
      ESP Fit Center  142 is at  -2.978809  3.289504  0.811472
      ESP Fit Center  143 is at  -3.272160  2.996152  0.811472
      ESP Fit Center  144 is at  -3.510115  2.656318  0.811472
      ESP Fit Center  145 is at  -3.685443  2.280326  0.811472
      ESP Fit Center  146 is at  -3.792817  1.879601  0.811472
      ESP Fit Center  147 is at  -3.828974  1.466318  0.811472
      ESP Fit Center  148 is at  -3.792817  1.053035  0.811472
      ESP Fit Center  149 is at  -3.685443  0.652310  0.811472
      ESP Fit Center  150 is at  -3.510115  0.276318  0.811472
      ESP Fit Center  151 is at   0.012388  3.298808  0.398189
      ESP Fit Center  152 is at  -0.338301  3.530295  0.398189
      ESP Fit Center  153 is at  -0.724687  3.695445  0.398189
      ESP Fit Center  154 is at  -1.134352  3.788948  0.398189
      ESP Fit Center  155 is at  -1.554130  3.807800  0.398189
      ESP Fit Center  156 is at  -1.970528  3.751395  0.398189
      ESP Fit Center  157 is at  -2.370163  3.621546  0.398189
      ESP Fit Center  158 is at  -2.740190  3.422426  0.398189
      ESP Fit Center  159 is at  -3.068716  3.160435  0.398189
      ESP Fit Center  160 is at  -3.345182  2.843994  0.398189
      ESP Fit Center  161 is at  -3.560703  2.483273  0.398189
      ESP Fit Center  162 is at  -3.708351  2.089866  0.398189
      ESP Fit Center  163 is at  -3.783381  1.676418  0.398189
      ESP Fit Center  164 is at  -3.783381  1.256217  0.398189
      ESP Fit Center  165 is at  -3.708351  0.842769  0.398189
      ESP Fit Center  166 is at  -3.560703  0.449363  0.398189
      ESP Fit Center  167 is at  -3.345182  0.088642  0.398189
      ESP Fit Center  168 is at  -0.151695  3.288091 -0.002536
      ESP Fit Center  169 is at  -0.519912  3.500681 -0.002536
      ESP Fit Center  170 is at  -0.921707  3.639744 -0.002536
      ESP Fit Center  171 is at  -1.342559  3.700253 -0.002536
      ESP Fit Center  172 is at  -1.767257  3.680022 -0.002536
      ESP Fit Center  173 is at  -2.180451  3.579782 -0.002536
      ESP Fit Center  174 is at  -2.567208  3.403156 -0.002536
      ESP Fit Center  175 is at  -2.913549  3.156528 -0.002536
      ESP Fit Center  176 is at  -3.206957  2.848811 -0.002536
      ESP Fit Center  177 is at  -3.436827  2.491127 -0.002536
      ESP Fit Center  178 is at  -3.594850  2.096404 -0.002536
      ESP Fit Center  179 is at  -3.675316  1.678908 -0.002536
      ESP Fit Center  180 is at  -3.675316  1.253728 -0.002536
      ESP Fit Center  181 is at  -3.594850  0.836232 -0.002536
      ESP Fit Center  182 is at  -3.436827  0.441509 -0.002536
      ESP Fit Center  183 is at  -3.206957  0.083825 -0.002536
      ESP Fit Center  184 is at  -0.358705  3.215493 -0.378528
      ESP Fit Center  185 is at  -0.733129  3.399157 -0.378528
      ESP Fit Center  186 is at  -1.136860  3.503690 -0.378528
      ESP Fit Center  187 is at  -1.553369  3.524813 -0.378528
      ESP Fit Center  188 is at  -1.965604  3.461661 -0.378528
      ESP Fit Center  189 is at  -2.356688  3.316819 -0.378528
      ESP Fit Center  190 is at  -2.710611  3.096218 -0.378528
      ESP Fit Center  191 is at  -3.012881  2.808888 -0.378528
      ESP Fit Center  192 is at  -3.251125  2.466593 -0.378528
      ESP Fit Center  193 is at  -3.415589  2.083347 -0.378528
      ESP Fit Center  194 is at  -3.499540  1.674840 -0.378528
      ESP Fit Center  195 is at  -3.499540  1.257796 -0.378528
      ESP Fit Center  196 is at  -3.415589  0.849288 -0.378528
      ESP Fit Center  197 is at  -0.726847  3.140396 -0.718363
      ESP Fit Center  198 is at  -1.132381  3.261805 -0.718363
      ESP Fit Center  199 is at  -1.554983  3.286419 -0.718363
      ESP Fit Center  200 is at  -1.971870  3.212911 -0.718363
      ESP Fit Center  201 is at  -2.360567  3.045243 -0.718363
      ESP Fit Center  202 is at  -2.700120  2.792455 -0.718363
      ESP Fit Center  203 is at  -2.972224  2.468175 -0.718363
      ESP Fit Center  204 is at  -3.162208  2.089884 -0.718363
      ESP Fit Center  205 is at  -3.259832  1.677977 -0.718363
      ESP Fit Center  206 is at  -3.259832  1.254659 -0.718363
      ESP Fit Center  207 is at  -0.745151  2.824635 -1.011714
      ESP Fit Center  208 is at  -1.137720  2.964154 -1.011714
      ESP Fit Center  209 is at  -1.553374  2.992586 -1.011714
      ESP Fit Center  210 is at  -1.961285  2.907821 -1.011714
      ESP Fit Center  211 is at  -2.331200  2.716147 -1.011714
      ESP Fit Center  212 is at  -2.635684  2.431778 -1.011714
      ESP Fit Center  213 is at  -2.852156  2.075806 -1.011714
      ESP Fit Center  214 is at  -0.853974  2.496888 -1.249669
      ESP Fit Center  215 is at  -1.242333  2.638239 -1.249669
      ESP Fit Center  216 is at  -1.655615  2.638239 -1.249669
      ESP Fit Center  217 is at  -2.043974  2.496888 -1.249669
      ESP Fit Center  218 is at  -2.360567  2.231235 -1.249669
      ESP Fit Center  219 is at  -3.258007  0.181518 -0.146201
      ESP Fit Center  220 is at  -3.258007 -0.241800 -0.146201
      ESP Fit Center  221 is at  -3.413764  0.586889 -0.486036
      ESP Fit Center  222 is at  -3.497714  0.178381 -0.486036
      ESP Fit Center  223 is at  -3.497714 -0.238663 -0.486036
      ESP Fit Center  224 is at  -3.413764 -0.647170 -0.486036
      ESP Fit Center  225 is at  -3.205132  1.352352 -0.862028
      ESP Fit Center  226 is at  -3.435001  0.994668 -0.862028
      ESP Fit Center  227 is at  -3.593025  0.599945 -0.862028
      ESP Fit Center  228 is at  -3.673490  0.182449 -0.862028
      ESP Fit Center  229 is at  -3.673490 -0.242731 -0.862028
      ESP Fit Center  230 is at  -3.593025 -0.660227 -0.862028
      ESP Fit Center  231 is at  -3.435001 -1.054950 -0.862028
      ESP Fit Center  232 is at  -3.205132 -1.412634 -0.862028
      ESP Fit Center  233 is at  -2.738365  1.925967 -1.262753
      ESP Fit Center  234 is at  -3.066891  1.663977 -1.262753
      ESP Fit Center  235 is at  -3.343357  1.347535 -1.262753
      ESP Fit Center  236 is at  -3.558878  0.986814 -1.262753
      ESP Fit Center  237 is at  -3.706526  0.593408 -1.262753
      ESP Fit Center  238 is at  -3.781556  0.179960 -1.262753
      ESP Fit Center  239 is at  -3.781556 -0.240241 -1.262753
      ESP Fit Center  240 is at  -3.706526 -0.653689 -1.262753
      ESP Fit Center  241 is at  -3.558878 -1.047096 -1.262753
      ESP Fit Center  242 is at  -3.343357 -1.407817 -1.262753
      ESP Fit Center  243 is at  -3.066891 -1.724258 -1.262753
      ESP Fit Center  244 is at  -2.738365 -1.986249 -1.262753
      ESP Fit Center  245 is at  -2.368338 -2.185369 -1.262753
      ESP Fit Center  246 is at  -1.033866  2.313702 -1.676036
      ESP Fit Center  247 is at  -1.447149  2.349859 -1.676036
      ESP Fit Center  248 is at  -1.860432  2.313702 -1.676036
      ESP Fit Center  249 is at  -2.261157  2.206328 -1.676036
      ESP Fit Center  250 is at  -2.637149  2.031000 -1.676036
      ESP Fit Center  251 is at  -2.976983  1.793045 -1.676036
      ESP Fit Center  252 is at  -3.270335  1.499694 -1.676036
      ESP Fit Center  253 is at  -3.508289  1.159859 -1.676036
      ESP Fit Center  254 is at  -3.683617  0.783867 -1.676036
      ESP Fit Center  255 is at  -3.790991  0.383142 -1.676036
      ESP Fit Center  256 is at  -3.827149 -0.030141 -1.676036
      ESP Fit Center  257 is at  -3.790991 -0.443423 -1.676036
      ESP Fit Center  258 is at  -3.683617 -0.844149 -1.676036
      ESP Fit Center  259 is at  -3.508289 -1.220141 -1.676036
      ESP Fit Center  260 is at  -3.270335 -1.559975 -1.676036
      ESP Fit Center  261 is at  -2.976983 -1.853327 -1.676036
      ESP Fit Center  262 is at  -2.637149 -2.091281 -1.676036
      ESP Fit Center  263 is at  -2.261157 -2.266609 -1.676036
      ESP Fit Center  264 is at  -1.860432 -2.373983 -1.676036
      ESP Fit Center  265 is at  -1.447149 -2.410141 -1.676036
      ESP Fit Center  266 is at  -1.033866 -2.373983 -1.676036
      ESP Fit Center  267 is at  -0.633141 -2.266609 -1.676036
      ESP Fit Center  268 is at  -0.722862  2.198986 -2.089318
      ESP Fit Center  269 is at  -1.132527  2.292489 -2.089318
      ESP Fit Center  270 is at  -1.552305  2.311342 -2.089318
      ESP Fit Center  271 is at  -1.968703  2.254937 -2.089318
      ESP Fit Center  272 is at  -2.368338  2.125087 -2.089318
      ESP Fit Center  273 is at  -2.738365  1.925967 -2.089318
      ESP Fit Center  274 is at  -3.066891  1.663977 -2.089318
      ESP Fit Center  275 is at  -3.343357  1.347535 -2.089318
      ESP Fit Center  276 is at  -3.558878  0.986814 -2.089318
      ESP Fit Center  277 is at  -3.706526  0.593408 -2.089318
      ESP Fit Center  278 is at  -3.781556  0.179960 -2.089318
      ESP Fit Center  279 is at  -3.781556 -0.240241 -2.089318
      ESP Fit Center  280 is at  -3.706526 -0.653689 -2.089318
      ESP Fit Center  281 is at  -3.558878 -1.047096 -2.089318
      ESP Fit Center  282 is at  -3.343357 -1.407817 -2.089318
      ESP Fit Center  283 is at  -3.066891 -1.724258 -2.089318
      ESP Fit Center  284 is at  -2.738365 -1.986249 -2.089318
      ESP Fit Center  285 is at  -2.368338 -2.185369 -2.089318
      ESP Fit Center  286 is at  -1.968703 -2.315218 -2.089318
      ESP Fit Center  287 is at  -1.552305 -2.371623 -2.089318
      ESP Fit Center  288 is at  -1.132527 -2.352771 -2.089318
      ESP Fit Center  289 is at  -0.722862 -2.259267 -2.089318
      ESP Fit Center  290 is at  -0.518086  2.004223 -2.490044
      ESP Fit Center  291 is at  -0.919881  2.143285 -2.490044
      ESP Fit Center  292 is at  -1.340733  2.203795 -2.490044
      ESP Fit Center  293 is at  -1.765432  2.183564 -2.490044
      ESP Fit Center  294 is at  -2.178626  2.083324 -2.490044
      ESP Fit Center  295 is at  -2.565383  1.906698 -2.490044
      ESP Fit Center  296 is at  -2.911724  1.660069 -2.490044
      ESP Fit Center  297 is at  -3.205132  1.352352 -2.490044
      ESP Fit Center  298 is at  -3.435001  0.994668 -2.490044
      ESP Fit Center  299 is at  -3.593025  0.599945 -2.490044
      ESP Fit Center  300 is at  -3.673490  0.182449 -2.490044
      ESP Fit Center  301 is at  -3.673490 -0.242731 -2.490044
      ESP Fit Center  302 is at  -3.593025 -0.660227 -2.490044
      ESP Fit Center  303 is at  -3.435001 -1.054950 -2.490044
      ESP Fit Center  304 is at  -3.205132 -1.412634 -2.490044
      ESP Fit Center  305 is at  -2.911724 -1.720351 -2.490044
      ESP Fit Center  306 is at  -2.565383 -1.966979 -2.490044
      ESP Fit Center  307 is at  -2.178626 -2.143605 -2.490044
      ESP Fit Center  308 is at  -1.765432 -2.243845 -2.490044
      ESP Fit Center  309 is at  -1.340733 -2.264076 -2.490044
      ESP Fit Center  310 is at  -0.919881 -2.203567 -2.490044
      ESP Fit Center  311 is at  -0.518086 -2.064504 -2.490044
      ESP Fit Center  312 is at   0.613992 -0.030141 -2.866036
      ESP Fit Center  313 is at   0.571800  0.384764 -2.866036
      ESP Fit Center  314 is at  -0.027091  1.463759 -2.866036
      ESP Fit Center  315 is at  -0.356880  1.719034 -2.866036
      ESP Fit Center  316 is at  -0.731304  1.902698 -2.866036
      ESP Fit Center  317 is at  -1.135035  2.007231 -2.866036
      ESP Fit Center  318 is at  -1.551544  2.028354 -2.866036
      ESP Fit Center  319 is at  -1.963779  1.965202 -2.866036
      ESP Fit Center  320 is at  -2.354863  1.820361 -2.866036
      ESP Fit Center  321 is at  -2.708785  1.599759 -2.866036
      ESP Fit Center  322 is at  -3.011056  1.312429 -2.866036
      ESP Fit Center  323 is at  -3.249300  0.970135 -2.866036
      ESP Fit Center  324 is at  -3.413764  0.586889 -2.866036
      ESP Fit Center  325 is at  -3.497714  0.178381 -2.866036
      ESP Fit Center  326 is at  -3.497714 -0.238663 -2.866036
      ESP Fit Center  327 is at  -3.413764 -0.647170 -2.866036
      ESP Fit Center  328 is at  -3.249300 -1.030416 -2.866036
      ESP Fit Center  329 is at  -3.011056 -1.372711 -2.866036
      ESP Fit Center  330 is at  -2.708785 -1.660041 -2.866036
      ESP Fit Center  331 is at  -2.354863 -1.880642 -2.866036
      ESP Fit Center  332 is at  -1.963779 -2.025484 -2.866036
      ESP Fit Center  333 is at  -1.551544 -2.088636 -2.866036
      ESP Fit Center  334 is at  -1.135035 -2.067513 -2.866036
      ESP Fit Center  335 is at  -0.731304 -1.962980 -2.866036
      ESP Fit Center  336 is at  -0.356880 -1.779316 -2.866036
      ESP Fit Center  337 is at  -0.027091 -1.524040 -2.866036
      ESP Fit Center  338 is at   0.244560 -1.207605 -2.866036
      ESP Fit Center  339 is at   0.571800 -0.445045 -2.866036
      ESP Fit Center  340 is at   0.376037 -0.030141 -3.205870
      ESP Fit Center  341 is at   0.326893  0.390315 -3.205870
      ESP Fit Center  342 is at   0.182109  0.788104 -3.205870
      ESP Fit Center  343 is at  -0.050508  1.141780 -3.205870
      ESP Fit Center  344 is at  -0.358418  1.432279 -3.205870
      ESP Fit Center  345 is at  -0.725022  1.643938 -3.205870
      ESP Fit Center  346 is at  -1.130556  1.765347 -3.205870
      ESP Fit Center  347 is at  -1.553158  1.789960 -3.205870
      ESP Fit Center  348 is at  -1.970044  1.716452 -3.205870
      ESP Fit Center  349 is at  -2.358742  1.548784 -3.205870
      ESP Fit Center  350 is at  -2.698295  1.295997 -3.205870
      ESP Fit Center  351 is at  -2.970398  0.971716 -3.205870
      ESP Fit Center  352 is at  -3.160383  0.593426 -3.205870
      ESP Fit Center  353 is at  -3.258007  0.181518 -3.205870
      ESP Fit Center  354 is at  -3.258007 -0.241800 -3.205870
      ESP Fit Center  355 is at  -3.160383 -0.653707 -3.205870
      ESP Fit Center  356 is at  -2.970398 -1.031998 -3.205870
      ESP Fit Center  357 is at  -2.698295 -1.356278 -3.205870
      ESP Fit Center  358 is at  -2.358742 -1.609066 -3.205870
      ESP Fit Center  359 is at  -1.970044 -1.776734 -3.205870
      ESP Fit Center  360 is at  -1.553158 -1.850242 -3.205870
      ESP Fit Center  361 is at  -1.130556 -1.825628 -3.205870
      ESP Fit Center  362 is at  -0.725022 -1.704219 -3.205870
      ESP Fit Center  363 is at  -0.358418 -1.492560 -3.205870
      ESP Fit Center  364 is at  -0.050508 -1.202062 -3.205870
      ESP Fit Center  365 is at   0.182109 -0.848385 -3.205870
      ESP Fit Center  366 is at   0.326893 -0.450596 -3.205870
      ESP Fit Center  367 is at   0.082686 -0.030141 -3.499221
      ESP Fit Center  368 is at   0.025955  0.382604 -3.499221
      ESP Fit Center  369 is at  -0.140029  0.764737 -3.499221
      ESP Fit Center  370 is at  -0.402956  1.087917 -3.499221
      ESP Fit Center  371 is at  -0.743325  1.328177 -3.499221
      ESP Fit Center  372 is at  -1.135895  1.467696 -3.499221
      ESP Fit Center  373 is at  -1.551548  1.496127 -3.499221
      ESP Fit Center  374 is at  -1.959459  1.411363 -3.499221
      ESP Fit Center  375 is at  -2.329374  1.219688 -3.499221
      ESP Fit Center  376 is at  -2.633859  0.935319 -3.499221
      ESP Fit Center  377 is at  -2.850330  0.579347 -3.499221
      ESP Fit Center  378 is at  -2.962734  0.178172 -3.499221
      ESP Fit Center  379 is at  -2.962734 -0.238453 -3.499221
      ESP Fit Center  380 is at  -2.850330 -0.639628 -3.499221
      ESP Fit Center  381 is at  -2.633859 -0.995601 -3.499221
      ESP Fit Center  382 is at  -2.329374 -1.279969 -3.499221
      ESP Fit Center  383 is at  -1.959459 -1.471644 -3.499221
      ESP Fit Center  384 is at  -1.551548 -1.556409 -3.499221
      ESP Fit Center  385 is at  -1.135895 -1.527977 -3.499221
      ESP Fit Center  386 is at  -0.743325 -1.388458 -3.499221
      ESP Fit Center  387 is at  -0.402956 -1.148199 -3.499221
      ESP Fit Center  388 is at  -0.140029 -0.825018 -3.499221
      ESP Fit Center  389 is at   0.025955 -0.442885 -3.499221
      ESP Fit Center  390 is at  -0.257149 -0.030141 -3.737176
      ESP Fit Center  391 is at  -0.328915  0.376863 -3.737176
      ESP Fit Center  392 is at  -0.535556  0.734777 -3.737176
      ESP Fit Center  393 is at  -0.852149  1.000429 -3.737176
      ESP Fit Center  394 is at  -1.240508  1.141780 -3.737176
      ESP Fit Center  395 is at  -1.653790  1.141780 -3.737176
      ESP Fit Center  396 is at  -2.042149  1.000429 -3.737176
      ESP Fit Center  397 is at  -2.358742  0.734777 -3.737176
      ESP Fit Center  398 is at  -2.565383  0.376863 -3.737176
      ESP Fit Center  399 is at  -2.637149 -0.030141 -3.737176
      ESP Fit Center  400 is at  -2.565383 -0.437145 -3.737176
      ESP Fit Center  401 is at  -2.358742 -0.795058 -3.737176
      ESP Fit Center  402 is at  -2.042149 -1.060711 -3.737176
      ESP Fit Center  403 is at  -1.653790 -1.202062 -3.737176
      ESP Fit Center  404 is at  -1.240508 -1.202062 -3.737176
      ESP Fit Center  405 is at  -0.852149 -1.060711 -3.737176
      ESP Fit Center  406 is at  -0.535556 -0.795058 -3.737176
      ESP Fit Center  407 is at  -0.328915 -0.437145 -3.737176
      ESP Fit Center  408 is at  -0.633141 -0.030141 -3.912504
      ESP Fit Center  409 is at  -0.742197  0.376863 -3.912504
      ESP Fit Center  410 is at  -1.040145  0.674811 -3.912504
      ESP Fit Center  411 is at  -1.447149  0.783867 -3.912504
      ESP Fit Center  412 is at  -1.854153  0.674811 -3.912504
      ESP Fit Center  413 is at  -2.152100  0.376863 -3.912504
      ESP Fit Center  414 is at  -2.261157 -0.030141 -3.912504
      ESP Fit Center  415 is at  -2.152100 -0.437145 -3.912504
      ESP Fit Center  416 is at  -1.854153 -0.735092 -3.912504
      ESP Fit Center  417 is at  -1.447149 -0.844149 -3.912504
      ESP Fit Center  418 is at  -1.040145 -0.735092 -3.912504
      ESP Fit Center  419 is at  -0.742197 -0.437145 -3.912504
      ESP Fit Center  420 is at  -1.033866 -0.030141 -4.019878
      ESP Fit Center  421 is at  -1.240508  0.327773 -4.019878
      ESP Fit Center  422 is at  -1.653790  0.327773 -4.019878
      ESP Fit Center  423 is at  -1.860432 -0.030141 -4.019878
      ESP Fit Center  424 is at  -1.653790 -0.388054 -4.019878
      ESP Fit Center  425 is at  -1.240508 -0.388054 -4.019878
      ESP Fit Center  426 is at  -1.447149 -0.030141 -4.056036
      ESP Fit Center  427 is at  -1.448472 -1.436590  3.242946
      ESP Fit Center  428 is at  -1.035190 -1.436590  3.206789
      ESP Fit Center  429 is at  -1.241831 -1.078677  3.206789
      ESP Fit Center  430 is at  -1.655114 -1.078677  3.206789
      ESP Fit Center  431 is at  -1.861755 -1.436590  3.206789
      ESP Fit Center  432 is at  -1.655114 -1.794504  3.206789
      ESP Fit Center  433 is at  -1.241831 -1.794504  3.206789
      ESP Fit Center  434 is at  -0.634465 -1.436590  3.099415
      ESP Fit Center  435 is at  -0.743521 -1.029586  3.099415
      ESP Fit Center  436 is at  -1.041468 -0.731639  3.099415
      ESP Fit Center  437 is at  -1.448472 -0.622582  3.099415
      ESP Fit Center  438 is at  -1.855476 -0.731639  3.099415
      ESP Fit Center  439 is at  -2.153424 -1.029586  3.099415
      ESP Fit Center  440 is at  -2.262480 -1.436590  3.099415
      ESP Fit Center  441 is at  -2.153424 -1.843594  3.099415
      ESP Fit Center  442 is at  -1.855476 -2.141542  3.099415
      ESP Fit Center  443 is at  -1.448472 -2.250598  3.099415
      ESP Fit Center  444 is at  -1.041468 -2.141542  3.099415
      ESP Fit Center  445 is at  -0.743521 -1.843594  3.099415
      ESP Fit Center  446 is at  -0.258472 -1.436590  2.924087
      ESP Fit Center  447 is at  -0.330238 -1.029586  2.924087
      ESP Fit Center  448 is at  -0.536880 -0.671673  2.924087
      ESP Fit Center  449 is at  -0.853472 -0.406020  2.924087
      ESP Fit Center  450 is at  -1.241831 -0.264669  2.924087
      ESP Fit Center  451 is at  -1.655114 -0.264669  2.924087
      ESP Fit Center  452 is at  -2.043472 -0.406020  2.924087
      ESP Fit Center  453 is at  -2.360065 -0.671673  2.924087
      ESP Fit Center  454 is at  -2.566707 -1.029586  2.924087
      ESP Fit Center  455 is at  -2.638472 -1.436590  2.924087
      ESP Fit Center  456 is at  -2.566707 -1.843594  2.924087
      ESP Fit Center  457 is at  -2.360065 -2.201508  2.924087
      ESP Fit Center  458 is at  -2.043472 -2.467161  2.924087
      ESP Fit Center  459 is at  -1.655114 -2.608512  2.924087
      ESP Fit Center  460 is at  -1.241831 -2.608512  2.924087
      ESP Fit Center  461 is at  -0.853472 -2.467161  2.924087
      ESP Fit Center  462 is at  -0.536880 -2.201508  2.924087
      ESP Fit Center  463 is at  -0.330238 -1.843594  2.924087
      ESP Fit Center  464 is at  -0.744649 -0.078273  2.686132
      ESP Fit Center  465 is at  -1.960783  0.004913  2.686132
      ESP Fit Center  466 is at  -2.330698 -0.186762  2.686132
      ESP Fit Center  467 is at  -2.635182 -0.471130  2.686132
      ESP Fit Center  468 is at  -2.851654 -0.827103  2.686132
      ESP Fit Center  469 is at  -2.964058 -1.228278  2.686132
      ESP Fit Center  470 is at  -2.964058 -1.644903  2.686132
      ESP Fit Center  471 is at  -2.851654 -2.046078  2.686132
      ESP Fit Center  472 is at  -2.635182 -2.402050  2.686132
      ESP Fit Center  473 is at  -2.330698 -2.686419  2.686132
      ESP Fit Center  474 is at  -1.960783 -2.878094  2.686132
      ESP Fit Center  475 is at  -1.552872 -2.962858  2.686132
      ESP Fit Center  476 is at  -1.137218 -2.934427  2.686132
      ESP Fit Center  477 is at  -0.744649 -2.794908  2.686132
      ESP Fit Center  478 is at  -0.404279 -2.554648  2.686132
      ESP Fit Center  479 is at  -0.141352 -2.231468  2.686132
      ESP Fit Center  480 is at   0.024632 -1.849335  2.686132
      ESP Fit Center  481 is at  -2.699618 -0.110453  2.392781
      ESP Fit Center  482 is at  -2.971722 -0.434733  2.392781
      ESP Fit Center  483 is at  -3.161707 -0.813024  2.392781
      ESP Fit Center  484 is at  -3.259330 -1.224931  2.392781
      ESP Fit Center  485 is at  -3.259330 -1.648249  2.392781
      ESP Fit Center  486 is at  -3.161707 -2.060157  2.392781
      ESP Fit Center  487 is at  -2.971722 -2.438447  2.392781
      ESP Fit Center  488 is at  -2.699618 -2.762728  2.392781
      ESP Fit Center  489 is at  -2.360065 -3.015516  2.392781
      ESP Fit Center  490 is at  -1.971368 -3.183183  2.392781
      ESP Fit Center  491 is at  -1.554481 -3.256692  2.392781
      ESP Fit Center  492 is at  -1.131880 -3.232078  2.392781
      ESP Fit Center  493 is at  -0.726345 -3.110669  2.392781
      ESP Fit Center  494 is at  -0.359741 -2.899010  2.392781
      ESP Fit Center  495 is at  -0.051831 -2.608512  2.392781
      ESP Fit Center  496 is at   0.180786 -2.254835  2.392781
      ESP Fit Center  497 is at  -3.012380 -0.094020  2.052946
      ESP Fit Center  498 is at  -3.250624 -0.436315  2.052946
      ESP Fit Center  499 is at  -3.415087 -0.819561  2.052946
      ESP Fit Center  500 is at  -3.499038 -1.228068  2.052946
      ESP Fit Center  501 is at  -3.499038 -1.645112  2.052946
      ESP Fit Center  502 is at  -3.415087 -2.053620  2.052946
      ESP Fit Center  503 is at  -3.250624 -2.436866  2.052946
      ESP Fit Center  504 is at  -3.012380 -2.779161  2.052946
      ESP Fit Center  505 is at  -2.710109 -3.066490  2.052946
      ESP Fit Center  506 is at  -2.356187 -3.287092  2.052946
      ESP Fit Center  507 is at  -1.965103 -3.431933  2.052946
      ESP Fit Center  508 is at  -1.552867 -3.495085  2.052946
      ESP Fit Center  509 is at  -1.136359 -3.473962  2.052946
      ESP Fit Center  510 is at  -0.732628 -3.369429  2.052946
      ESP Fit Center  511 is at  -0.358203 -3.185765  2.052946
      ESP Fit Center  512 is at  -0.028415 -2.930490  2.052946
      ESP Fit Center  513 is at   0.243236 -2.614054  2.052946
      ESP Fit Center  514 is at   0.445629 -2.249413  2.052946
      ESP Fit Center  515 is at  -3.206455 -0.054097  1.676954
      ESP Fit Center  516 is at  -3.436325 -0.411781  1.676954
      ESP Fit Center  517 is at  -3.594348 -0.806504  1.676954
      ESP Fit Center  518 is at  -3.674814 -1.224001  1.676954
      ESP Fit Center  519 is at  -3.674814 -1.649180  1.676954
      ESP Fit Center  520 is at  -3.594348 -2.066676  1.676954
      ESP Fit Center  521 is at  -3.436325 -2.461400  1.676954
      ESP Fit Center  522 is at  -3.206455 -2.819083  1.676954
      ESP Fit Center  523 is at  -2.913048 -3.126800  1.676954
      ESP Fit Center  524 is at  -2.566707 -3.373429  1.676954
      ESP Fit Center  525 is at  -2.179950 -3.550055  1.676954
      ESP Fit Center  526 is at  -1.766755 -3.650295  1.676954
      ESP Fit Center  527 is at  -1.342057 -3.670526  1.676954
      ESP Fit Center  528 is at  -0.921205 -3.610016  1.676954
      ESP Fit Center  529 is at  -0.519410 -3.470954  1.676954
      ESP Fit Center  530 is at  -0.151193 -3.258364  1.676954
      ESP Fit Center  531 is at   0.170136 -2.979930  1.676954
      ESP Fit Center  532 is at   0.432965 -2.645716  1.676954
      ESP Fit Center  533 is at   0.627793 -2.267802  1.676954
      ESP Fit Center  534 is at  -3.344681 -0.058914  1.276229
      ESP Fit Center  535 is at  -3.560202 -0.419635  1.276229
      ESP Fit Center  536 is at  -3.707850 -0.813042  1.276229
      ESP Fit Center  537 is at  -3.782879 -1.226490  1.276229
      ESP Fit Center  538 is at  -3.782879 -1.646691  1.276229
      ESP Fit Center  539 is at  -3.707850 -2.060139  1.276229
      ESP Fit Center  540 is at  -3.560202 -2.453545  1.276229
      ESP Fit Center  541 is at  -3.344681 -2.814266  1.276229
      ESP Fit Center  542 is at  -3.068214 -3.130708  1.276229
      ESP Fit Center  543 is at  -2.739688 -3.392699  1.276229
      ESP Fit Center  544 is at  -2.369661 -3.591819  1.276229
      ESP Fit Center  545 is at  -1.970026 -3.721668  1.276229
      ESP Fit Center  546 is at  -1.553629 -3.778073  1.276229
      ESP Fit Center  547 is at  -1.133851 -3.759220  1.276229
      ESP Fit Center  548 is at  -0.724185 -3.665717  1.276229
      ESP Fit Center  549 is at  -0.337799 -3.500568  1.276229
      ESP Fit Center  550 is at   0.012889 -3.269080  1.276229
      ESP Fit Center  551 is at   0.316608 -2.978695  1.276229
      ESP Fit Center  552 is at   0.563596 -2.638745  1.276229
      ESP Fit Center  553 is at  -3.509613 -0.246590  0.862946
      ESP Fit Center  554 is at  -3.684941 -0.622582  0.862946
      ESP Fit Center  555 is at  -3.792315 -1.023308  0.862946
      ESP Fit Center  556 is at  -3.828472 -1.436590  0.862946
      ESP Fit Center  557 is at  -3.792315 -1.849873  0.862946
      ESP Fit Center  558 is at  -3.684941 -2.250598  0.862946
      ESP Fit Center  559 is at  -3.509613 -2.626590  0.862946
      ESP Fit Center  560 is at  -3.271658 -2.966425  0.862946
      ESP Fit Center  561 is at  -2.978307 -3.259776  0.862946
      ESP Fit Center  562 is at  -2.638472 -3.497731  0.862946
      ESP Fit Center  563 is at  -2.262480 -3.673059  0.862946
      ESP Fit Center  564 is at  -1.861755 -3.780433  0.862946
      ESP Fit Center  565 is at  -1.448472 -3.816590  0.862946
      ESP Fit Center  566 is at  -1.035190 -3.780433  0.862946
      ESP Fit Center  567 is at  -0.634465 -3.673059  0.862946
      ESP Fit Center  568 is at  -0.258472 -3.497731  0.862946
      ESP Fit Center  569 is at   0.081362 -3.259776  0.862946
      ESP Fit Center  570 is at   0.374713 -2.966425  0.862946
      ESP Fit Center  571 is at  -3.344681 -0.058914  0.449664
      ESP Fit Center  572 is at  -3.560202 -0.419635  0.449664
      ESP Fit Center  573 is at  -3.707850 -0.813042  0.449664
      ESP Fit Center  574 is at  -3.782879 -1.226490  0.449664
      ESP Fit Center  575 is at  -3.782879 -1.646691  0.449664
      ESP Fit Center  576 is at  -3.707850 -2.060139  0.449664
      ESP Fit Center  577 is at  -3.560202 -2.453545  0.449664
      ESP Fit Center  578 is at  -3.344681 -2.814266  0.449664
      ESP Fit Center  579 is at  -3.068214 -3.130708  0.449664
      ESP Fit Center  580 is at  -2.739688 -3.392699  0.449664
      ESP Fit Center  581 is at  -2.369661 -3.591819  0.449664
      ESP Fit Center  582 is at  -1.970026 -3.721668  0.449664
      ESP Fit Center  583 is at  -1.553629 -3.778073  0.449664
      ESP Fit Center  584 is at  -1.133851 -3.759220  0.449664
      ESP Fit Center  585 is at  -0.724185 -3.665717  0.449664
      ESP Fit Center  586 is at  -0.337799 -3.500568  0.449664
      ESP Fit Center  587 is at   0.012889 -3.269080  0.449664
      ESP Fit Center  588 is at  -3.206455 -0.054097  0.048938
      ESP Fit Center  589 is at  -3.436325 -0.411781  0.048938
      ESP Fit Center  590 is at  -3.594348 -0.806504  0.048938
      ESP Fit Center  591 is at  -3.674814 -1.224001  0.048938
      ESP Fit Center  592 is at  -3.674814 -1.649180  0.048938
      ESP Fit Center  593 is at  -3.594348 -2.066676  0.048938
      ESP Fit Center  594 is at  -3.436325 -2.461400  0.048938
      ESP Fit Center  595 is at  -3.206455 -2.819083  0.048938
      ESP Fit Center  596 is at  -2.913048 -3.126800  0.048938
      ESP Fit Center  597 is at  -2.566707 -3.373429  0.048938
      ESP Fit Center  598 is at  -2.179950 -3.550055  0.048938
      ESP Fit Center  599 is at  -1.766755 -3.650295  0.048938
      ESP Fit Center  600 is at  -1.342057 -3.670526  0.048938
      ESP Fit Center  601 is at  -0.921205 -3.610016  0.048938
      ESP Fit Center  602 is at  -0.519410 -3.470954  0.048938
      ESP Fit Center  603 is at  -0.151193 -3.258364  0.048938
      ESP Fit Center  604 is at  -3.415087 -0.819561 -0.327054
      ESP Fit Center  605 is at  -3.499038 -1.228068 -0.327054
      ESP Fit Center  606 is at  -3.499038 -1.645112 -0.327054
      ESP Fit Center  607 is at  -3.415087 -2.053620 -0.327054
      ESP Fit Center  608 is at  -3.250624 -2.436866 -0.327054
      ESP Fit Center  609 is at  -3.012380 -2.779161 -0.327054
      ESP Fit Center  610 is at  -2.710109 -3.066490 -0.327054
      ESP Fit Center  611 is at  -2.356187 -3.287092 -0.327054
      ESP Fit Center  612 is at  -1.965103 -3.431933 -0.327054
      ESP Fit Center  613 is at  -1.552867 -3.495085 -0.327054
      ESP Fit Center  614 is at  -1.136359 -3.473962 -0.327054
      ESP Fit Center  615 is at  -0.732628 -3.369429 -0.327054
      ESP Fit Center  616 is at  -0.358203 -3.185765 -0.327054
      ESP Fit Center  617 is at  -3.259330 -1.224931 -0.666888
      ESP Fit Center  618 is at  -3.259330 -1.648249 -0.666888
      ESP Fit Center  619 is at  -3.161707 -2.060157 -0.666888
      ESP Fit Center  620 is at  -2.971722 -2.438447 -0.666888
      ESP Fit Center  621 is at  -2.699618 -2.762728 -0.666888
      ESP Fit Center  622 is at  -2.360065 -3.015516 -0.666888
      ESP Fit Center  623 is at  -1.971368 -3.183183 -0.666888
      ESP Fit Center  624 is at  -1.554481 -3.256692 -0.666888
      ESP Fit Center  625 is at  -1.131880 -3.232078 -0.666888
      ESP Fit Center  626 is at  -0.726345 -3.110669 -0.666888
      ESP Fit Center  627 is at  -2.851654 -2.046078 -0.960240
      ESP Fit Center  628 is at  -2.635182 -2.402050 -0.960240
      ESP Fit Center  629 is at  -2.330698 -2.686419 -0.960240
      ESP Fit Center  630 is at  -1.960783 -2.878094 -0.960240
      ESP Fit Center  631 is at  -1.552872 -2.962858 -0.960240
      ESP Fit Center  632 is at  -1.137218 -2.934427 -0.960240
      ESP Fit Center  633 is at  -0.744649 -2.794908 -0.960240
      ESP Fit Center  634 is at  -2.360065 -2.201508 -1.198194
      ESP Fit Center  635 is at  -2.043472 -2.467161 -1.198194
      ESP Fit Center  636 is at  -1.655114 -2.608512 -1.198194
      ESP Fit Center  637 is at  -1.241831 -2.608512 -1.198194
      ESP Fit Center  638 is at  -0.853472 -2.467161 -1.198194
      ESP Fit Center  639 is at   1.447307  0.029643  4.056323
      ESP Fit Center  640 is at   1.860589  0.029643  4.020166
      ESP Fit Center  641 is at   1.653948  0.387556  4.020166
      ESP Fit Center  642 is at   1.240665  0.387556  4.020166
      ESP Fit Center  643 is at   1.034024  0.029643  4.020166
      ESP Fit Center  644 is at   1.240665 -0.328271  4.020166
      ESP Fit Center  645 is at   1.653948 -0.328271  4.020166
      ESP Fit Center  646 is at   2.261315  0.029643  3.912792
      ESP Fit Center  647 is at   2.152258  0.436647  3.912792
      ESP Fit Center  648 is at   1.854311  0.734594  3.912792
      ESP Fit Center  649 is at   1.447307  0.843651  3.912792
      ESP Fit Center  650 is at   1.040303  0.734594  3.912792
      ESP Fit Center  651 is at   0.742355  0.436647  3.912792
      ESP Fit Center  652 is at   0.633299  0.029643  3.912792
      ESP Fit Center  653 is at   0.742355 -0.377361  3.912792
      ESP Fit Center  654 is at   1.040303 -0.675309  3.912792
      ESP Fit Center  655 is at   1.447307 -0.784365  3.912792
      ESP Fit Center  656 is at   1.854311 -0.675309  3.912792
      ESP Fit Center  657 is at   2.152258 -0.377361  3.912792
      ESP Fit Center  658 is at   2.637307  0.029643  3.737464
      ESP Fit Center  659 is at   2.565541  0.436647  3.737464
      ESP Fit Center  660 is at   2.358900  0.794560  3.737464
      ESP Fit Center  661 is at   2.042307  1.060213  3.737464
      ESP Fit Center  662 is at   1.653948  1.201564  3.737464
      ESP Fit Center  663 is at   1.240665  1.201564  3.737464
      ESP Fit Center  664 is at   0.852307  1.060213  3.737464
      ESP Fit Center  665 is at   0.535714  0.794560  3.737464
      ESP Fit Center  666 is at   0.329072  0.436647  3.737464
      ESP Fit Center  667 is at   0.257307  0.029643  3.737464
      ESP Fit Center  668 is at   0.329072 -0.377361  3.737464
      ESP Fit Center  669 is at   0.535714 -0.735275  3.737464
      ESP Fit Center  670 is at   0.852307 -1.000928  3.737464
      ESP Fit Center  671 is at   1.240665 -1.142279  3.737464
      ESP Fit Center  672 is at   1.653948 -1.142279  3.737464
      ESP Fit Center  673 is at   2.042307 -1.000928  3.737464
      ESP Fit Center  674 is at   2.358900 -0.735275  3.737464
      ESP Fit Center  675 is at   2.565541 -0.377361  3.737464
      ESP Fit Center  676 is at   2.977141  0.029643  3.499509
      ESP Fit Center  677 is at   2.920411  0.442387  3.499509
      ESP Fit Center  678 is at   2.754427  0.824520  3.499509
      ESP Fit Center  679 is at   2.491500  1.147701  3.499509
      ESP Fit Center  680 is at   2.151130  1.387960  3.499509
      ESP Fit Center  681 is at   1.758561  1.527479  3.499509
      ESP Fit Center  682 is at   1.342907  1.555911  3.499509
      ESP Fit Center  683 is at   0.934996  1.471146  3.499509
      ESP Fit Center  684 is at   0.565081  1.279471  3.499509
      ESP Fit Center  685 is at   0.260597  0.995103  3.499509
      ESP Fit Center  686 is at   0.044125  0.639130  3.499509
      ESP Fit Center  687 is at  -0.068279  0.237955  3.499509
      ESP Fit Center  688 is at  -0.068279 -0.178670  3.499509
      ESP Fit Center  689 is at   0.044125 -0.579845  3.499509
      ESP Fit Center  690 is at   0.260597 -0.935817  3.499509
      ESP Fit Center  691 is at   0.565081 -1.220186  3.499509
      ESP Fit Center  692 is at   0.934996 -1.411861  3.499509
      ESP Fit Center  693 is at   1.342907 -1.496625  3.499509
      ESP Fit Center  694 is at   1.758561 -1.468194  3.499509
      ESP Fit Center  695 is at   2.151130 -1.328675  3.499509
      ESP Fit Center  696 is at   2.491500 -1.088415  3.499509
      ESP Fit Center  697 is at   2.754427 -0.765235  3.499509
      ESP Fit Center  698 is at   2.920411 -0.383102  3.499509
      ESP Fit Center  699 is at   3.270492  0.029643  3.206158
      ESP Fit Center  700 is at   3.221348  0.450098  3.206158
      ESP Fit Center  701 is at   3.076565  0.847887  3.206158
      ESP Fit Center  702 is at   2.843948  1.201564  3.206158
      ESP Fit Center  703 is at   2.536038  1.492062  3.206158
      ESP Fit Center  704 is at   2.169434  1.703721  3.206158
      ESP Fit Center  705 is at   1.763900  1.825130  3.206158
      ESP Fit Center  706 is at   1.341298  1.849744  3.206158
      ESP Fit Center  707 is at   0.924411  1.776235  3.206158
      ESP Fit Center  708 is at   0.535714  1.608568  3.206158
      ESP Fit Center  709 is at   0.196161  1.355780  3.206158
      ESP Fit Center  710 is at  -0.075943  1.031500  3.206158
      ESP Fit Center  711 is at  -0.265928  0.653209  3.206158
      ESP Fit Center  712 is at  -0.363551  0.241302  3.206158
      ESP Fit Center  713 is at  -0.363551 -0.182016  3.206158
      ESP Fit Center  714 is at  -0.265928 -0.593924  3.206158
      ESP Fit Center  715 is at  -0.075943 -0.972214  3.206158
      ESP Fit Center  716 is at   0.196161 -1.296495  3.206158
      ESP Fit Center  717 is at   0.535714 -1.549283  3.206158
      ESP Fit Center  718 is at   0.924411 -1.716950  3.206158
      ESP Fit Center  719 is at   1.341298 -1.790459  3.206158
      ESP Fit Center  720 is at   1.763900 -1.765845  3.206158
      ESP Fit Center  721 is at   2.169434 -1.644436  3.206158
      ESP Fit Center  722 is at   2.536038 -1.432777  3.206158
      ESP Fit Center  723 is at   2.843948 -1.142279  3.206158
      ESP Fit Center  724 is at   3.076565 -0.788602  3.206158
      ESP Fit Center  725 is at   3.221348 -0.390813  3.206158
      ESP Fit Center  726 is at   3.508447  0.029643  2.866323
      ESP Fit Center  727 is at   3.466255  0.444547  2.866323
      ESP Fit Center  728 is at   3.341408  0.842465  2.866323
      ESP Fit Center  729 is at   3.139015  1.207107  2.866323
      ESP Fit Center  730 is at   2.867364  1.523542  2.866323
      ESP Fit Center  731 is at   2.537576  1.778818  2.866323
      ESP Fit Center  732 is at   2.163152  1.962482  2.866323
      ESP Fit Center  733 is at   1.759421  2.067015  2.866323
      ESP Fit Center  734 is at   1.342912  2.088138  2.866323
      ESP Fit Center  735 is at   0.930677  2.024986  2.866323
      ESP Fit Center  736 is at   0.539592  1.880144  2.866323
      ESP Fit Center  737 is at   0.185670  1.659543  2.866323
      ESP Fit Center  738 is at  -0.116600  1.372213  2.866323
      ESP Fit Center  739 is at  -0.519308  0.646672  2.866323
      ESP Fit Center  740 is at  -0.603259  0.238165  2.866323
      ESP Fit Center  741 is at  -0.603259 -0.178879  2.866323
      ESP Fit Center  742 is at  -0.116600 -1.312928  2.866323
      ESP Fit Center  743 is at   0.185670 -1.600257  2.866323
      ESP Fit Center  744 is at   0.539592 -1.820859  2.866323
      ESP Fit Center  745 is at   0.930677 -1.965700  2.866323
      ESP Fit Center  746 is at   1.342912 -2.028852  2.866323
      ESP Fit Center  747 is at   1.759421 -2.007729  2.866323
      ESP Fit Center  748 is at   2.163152 -1.903196  2.866323
      ESP Fit Center  749 is at   2.537576 -1.719532  2.866323
      ESP Fit Center  750 is at   2.867364 -1.464257  2.866323
      ESP Fit Center  751 is at   3.139015 -1.147821  2.866323
      ESP Fit Center  752 is at   3.341408 -0.783180  2.866323
      ESP Fit Center  753 is at   3.466255 -0.385262  2.866323
      ESP Fit Center  754 is at   3.683775  0.029643  2.490331
      ESP Fit Center  755 is at   3.643359  0.452897  2.490331
      ESP Fit Center  756 is at   3.523572  0.860854  2.490331
      ESP Fit Center  757 is at   3.328744  1.238769  2.490331
      ESP Fit Center  758 is at   3.065915  1.572983  2.490331
      ESP Fit Center  759 is at   2.744586  1.851416  2.490331
      ESP Fit Center  760 is at   2.376369  2.064006  2.490331
      ESP Fit Center  761 is at   1.974574  2.203069  2.490331
      ESP Fit Center  762 is at   1.553722  2.263578  2.490331
      ESP Fit Center  763 is at   1.129024  2.243347  2.490331
      ESP Fit Center  764 is at   0.715829  2.143107  2.490331
      ESP Fit Center  765 is at   0.329072  1.966481  2.490331
      ESP Fit Center  766 is at   0.329072 -1.907196  2.490331
      ESP Fit Center  767 is at   0.715829 -2.083822  2.490331
      ESP Fit Center  768 is at   1.129024 -2.184062  2.490331
      ESP Fit Center  769 is at   1.553722 -2.204293  2.490331
      ESP Fit Center  770 is at   1.974574 -2.143783  2.490331
      ESP Fit Center  771 is at   2.376369 -2.004721  2.490331
      ESP Fit Center  772 is at   2.744586 -1.792131  2.490331
      ESP Fit Center  773 is at   3.065915 -1.513697  2.490331
      ESP Fit Center  774 is at   3.328744 -1.179483  2.490331
      ESP Fit Center  775 is at   3.523572 -0.801569  2.490331
      ESP Fit Center  776 is at   3.643359 -0.393612  2.490331
      ESP Fit Center  777 is at   3.791149  0.029643  2.089606
      ESP Fit Center  778 is at   3.753483  0.448152  2.089606
      ESP Fit Center  779 is at   3.641694  0.853210  2.089606
      ESP Fit Center  780 is at   3.459375  1.231798  2.089606
      ESP Fit Center  781 is at   3.212388  1.571747  2.089606
      ESP Fit Center  782 is at   2.908669  1.862132  2.089606
      ESP Fit Center  783 is at   2.557980  2.093620  2.089606
      ESP Fit Center  784 is at   2.171594  2.258769  2.089606
      ESP Fit Center  785 is at   1.761928  2.352273  2.089606
      ESP Fit Center  786 is at   1.342151  2.371125  2.089606
      ESP Fit Center  787 is at   0.925753  2.314720  2.089606
      ESP Fit Center  788 is at   0.526118  2.184871  2.089606
      ESP Fit Center  789 is at   0.526118 -2.125586  2.089606
      ESP Fit Center  790 is at   0.925753 -2.255435  2.089606
      ESP Fit Center  791 is at   1.342151 -2.311840  2.089606
      ESP Fit Center  792 is at   1.761928 -2.292987  2.089606
      ESP Fit Center  793 is at   2.171594 -2.199484  2.089606
      ESP Fit Center  794 is at   2.557980 -2.034335  2.089606
      ESP Fit Center  795 is at   2.908669 -1.802847  2.089606
      ESP Fit Center  796 is at   3.212388 -1.512462  2.089606
      ESP Fit Center  797 is at   3.459375 -1.172512  2.089606
      ESP Fit Center  798 is at   3.641694 -0.793925  2.089606
      ESP Fit Center  799 is at   3.753483 -0.388867  2.089606
      ESP Fit Center  800 is at   3.827307  0.029643  1.676323
      ESP Fit Center  801 is at   3.791149  0.442925  1.676323
      ESP Fit Center  802 is at   3.683775  0.843651  1.676323
      ESP Fit Center  803 is at   3.508447  1.219643  1.676323
      ESP Fit Center  804 is at   3.270492  1.559477  1.676323
      ESP Fit Center  805 is at   2.977141  1.852828  1.676323
      ESP Fit Center  806 is at   2.637307  2.090783  1.676323
      ESP Fit Center  807 is at   2.261315  2.266111  1.676323
      ESP Fit Center  808 is at   1.860589  2.373485  1.676323
      ESP Fit Center  809 is at   1.447307  2.409643  1.676323
      ESP Fit Center  810 is at   1.034024  2.373485  1.676323
      ESP Fit Center  811 is at   0.633299  2.266111  1.676323
      ESP Fit Center  812 is at   1.034024 -2.314200  1.676323
      ESP Fit Center  813 is at   1.447307 -2.350357  1.676323
      ESP Fit Center  814 is at   1.860589 -2.314200  1.676323
      ESP Fit Center  815 is at   2.261315 -2.206826  1.676323
      ESP Fit Center  816 is at   2.637307 -2.031498  1.676323
      ESP Fit Center  817 is at   2.977141 -1.793543  1.676323
      ESP Fit Center  818 is at   3.270492 -1.500192  1.676323
      ESP Fit Center  819 is at   3.508447 -1.160357  1.676323
      ESP Fit Center  820 is at   3.683775 -0.784365  1.676323
      ESP Fit Center  821 is at   3.791149 -0.383640  1.676323
      ESP Fit Center  822 is at   3.791149  0.029643  1.263041
      ESP Fit Center  823 is at   3.753483  0.448152  1.263041
      ESP Fit Center  824 is at   3.641694  0.853210  1.263041
[...]
 5521 Fit       0.002195
 5522 Fit       0.002586
 5523 Fit       0.002761
 5524 Fit       0.002705
 5525 Fit       0.002420
 5526 Fit       0.001929
 5527 Fit       0.001272
 5528 Fit       0.000495
 5529 Fit      -0.000349
 5530 Fit      -0.001218
 5531 Fit      -0.002095
 5532 Fit      -0.002936
 5533 Fit      -0.002728
 5534 Fit      -0.002585
 5535 Fit      -0.002131
 5536 Fit      -0.001554
 5537 Fit      -0.000882
 5538 Fit      -0.000166
 5539 Fit       0.000534
 5540 Fit       0.001154
 5541 Fit       0.001636
 5542 Fit       0.001934
 5543 Fit       0.002020
 5544 Fit       0.001885
 5545 Fit       0.001542
 5546 Fit       0.001021
 5547 Fit       0.000367
 5548 Fit      -0.000368
 5549 Fit      -0.001134
 5550 Fit      -0.001895
 5551 Fit      -0.002926
 5552 Fit      -0.002781
 5553 Fit      -0.002318
 5554 Fit      -0.001752
 5555 Fit      -0.001110
 5556 Fit      -0.000445
 5557 Fit       0.000177
 5558 Fit       0.000688
 5559 Fit       0.001034
 5560 Fit       0.001175
 5561 Fit       0.001096
 5562 Fit       0.000808
 5563 Fit       0.000343
 5564 Fit      -0.000247
 5565 Fit      -0.000900
 5566 Fit      -0.001555
 5567 Fit      -0.003162
 5568 Fit      -0.002988
 5569 Fit      -0.002524
 5570 Fit      -0.001984
 5571 Fit      -0.001392
 5572 Fit      -0.000805
 5573 Fit      -0.000290
 5574 Fit       0.000087
 5575 Fit       0.000278
 5576 Fit       0.000259
 5577 Fit       0.000038
 5578 Fit      -0.000352
 5579 Fit      -0.000851
 5580 Fit      -0.001384
 5581 Fit      -0.003195
 5582 Fit      -0.002739
 5583 Fit      -0.002239
 5584 Fit      -0.001716
 5585 Fit      -0.001229
 5586 Fit      -0.000842
 5587 Fit      -0.000612
 5588 Fit      -0.000572
 5589 Fit      -0.000720
 5590 Fit      -0.001020
 5591 Fit      -0.001406
 5592 Fit      -0.001786
 5593 Fit      -0.002938
 5594 Fit      -0.002474
 5595 Fit      -0.002024
 5596 Fit      -0.001650
 5597 Fit      -0.001413
 5598 Fit      -0.001351
 5599 Fit      -0.001462
 5600 Fit      -0.001696
 5601 Fit      -0.001967
 5602 Fit      -0.003128
 5603 Fit      -0.002710
 5604 Fit      -0.002351
 5605 Fit      -0.002108
 5606 Fit      -0.002023
 5607 Fit      -0.002088
 5608 Fit      -0.002242
 5609 Fit      -0.003281
 5610 Fit      -0.002909
 5611 Fit      -0.002659
 5612 Fit      -0.002571
 5613 Fit      -0.002617
 5614 Fit      -0.003408
 5615 Fit      -0.003115
 5616 Fit      -0.003022
 5617 Fit      -0.002657
 5618 Fit      -0.002530
 5619 Fit      -0.002484
 5620 Fit      -0.003317
 5621 Fit      -0.003312
 5622 Fit      -0.003282
 5623 Fit      -0.003237
 5624 Fit      -0.003191
 5625 Fit      -0.003149
 5626 Fit      -0.003114
 5627 Fit      -0.003083
 5628 Fit      -0.003047
 5629 Fit      -0.002993
 5630 Fit      -0.002911
 5631 Fit      -0.002796
 5632 Fit      -0.002567
 5633 Fit      -0.002548
 5634 Fit      -0.002581
 5635 Fit      -0.002878
 5636 Fit      -0.002866
 5637 Fit      -0.002820
 5638 Fit      -0.002757
 5639 Fit      -0.002694
 5640 Fit      -0.002642
 5641 Fit      -0.002608
 5642 Fit      -0.002593
 5643 Fit      -0.002595
 5644 Fit      -0.002605
 5645 Fit      -0.002614
 5646 Fit      -0.002613
 5647 Fit      -0.002596
 5648 Fit      -0.002416
 5649 Fit      -0.002498
 5650 Fit      -0.002608
 5651 Fit      -0.002788
 5652 Fit      -0.002474
 5653 Fit      -0.002442
 5654 Fit      -0.002361
 5655 Fit      -0.002260
 5656 Fit      -0.002157
 5657 Fit      -0.002069
 5658 Fit      -0.002007
 5659 Fit      -0.001980
 5660 Fit      -0.001987
 5661 Fit      -0.002027
 5662 Fit      -0.002092
 5663 Fit      -0.002172
 5664 Fit      -0.002257
 5665 Fit      -0.002338
 5666 Fit      -0.002149
 5667 Fit      -0.002328
 5668 Fit      -0.002516
 5669 Fit      -0.002735
 5670 Fit      -0.003013
 5671 Fit      -0.002128
 5672 Fit      -0.002041
 5673 Fit      -0.001905
 5674 Fit      -0.001747
 5675 Fit      -0.001586
 5676 Fit      -0.001443
 5677 Fit      -0.001332
 5678 Fit      -0.001263
 5679 Fit      -0.001245
 5680 Fit      -0.001277
 5681 Fit      -0.001358
 5682 Fit      -0.001478
 5683 Fit      -0.001628
 5684 Fit      -0.001796
 5685 Fit      -0.001972
 5686 Fit      -0.001752
 5687 Fit      -0.002029
 5688 Fit      -0.002306
 5689 Fit      -0.002589
 5690 Fit      -0.002891
 5691 Fit      -0.003228
 5692 Fit      -0.001804
 5693 Fit      -0.001595
 5694 Fit      -0.001361
 5695 Fit      -0.001120
 5696 Fit      -0.000889
 5697 Fit      -0.000689
 5698 Fit      -0.000535
 5699 Fit      -0.000442
 5700 Fit      -0.000415
 5701 Fit      -0.000459
 5702 Fit      -0.000569
 5703 Fit      -0.000739
 5704 Fit      -0.000956
 5705 Fit      -0.001206
 5706 Fit      -0.001475
 5707 Fit      -0.001236
 5708 Fit      -0.001606
 5709 Fit      -0.001970
 5710 Fit      -0.002323
 5711 Fit      -0.002668
 5712 Fit      -0.003010
 5713 Fit      -0.001467
 5714 Fit      -0.001127
 5715 Fit      -0.000788
 5716 Fit      -0.000458
 5717 Fit      -0.000154
 5718 Fit       0.000107
 5719 Fit       0.000306
 5720 Fit       0.000431
 5721 Fit       0.000470
 5722 Fit       0.000423
 5723 Fit       0.000290
 5724 Fit       0.000081
 5725 Fit      -0.000193
 5726 Fit      -0.000515
 5727 Fit      -0.000868
 5728 Fit      -0.000632
 5729 Fit      -0.001093
 5730 Fit      -0.001543
 5731 Fit      -0.001974
 5732 Fit      -0.002378
 5733 Fit      -0.002754
 5734 Fit      -0.003102
 5735 Fit      -0.001759
 5736 Fit      -0.001248
 5737 Fit      -0.000776
 5738 Fit      -0.000324
 5739 Fit       0.000105
 5740 Fit       0.000499
 5741 Fit       0.000839
 5742 Fit       0.001105
 5743 Fit       0.001282
 5744 Fit       0.001357
 5745 Fit       0.001325
 5746 Fit       0.001189
 5747 Fit       0.000954
 5748 Fit       0.000636
 5749 Fit       0.000252
 5750 Fit      -0.000178
 5751 Fit       0.000019
 5752 Fit      -0.000518
 5753 Fit      -0.001045
 5754 Fit      -0.001547
 5755 Fit      -0.002011
 5756 Fit      -0.002429
 5757 Fit      -0.002798
 5758 Fit      -0.003117
 5759 Fit      -0.003388
 5760 Fit      -0.001692
 5761 Fit      -0.001072
 5762 Fit      -0.000489
 5763 Fit       0.000065
 5764 Fit       0.000589
 5765 Fit       0.001070
 5766 Fit       0.001488
 5767 Fit       0.001825
 5768 Fit       0.002060
 5769 Fit       0.002179
 5770 Fit       0.002176
 5771 Fit       0.002049
 5772 Fit       0.001806
 5773 Fit       0.001460
 5774 Fit       0.001031
 5775 Fit       0.000543
 5776 Fit       0.000668
 5777 Fit       0.000048
 5778 Fit      -0.000565
 5779 Fit      -0.001146
 5780 Fit      -0.001677
 5781 Fit      -0.002144
 5782 Fit      -0.002541
 5783 Fit      -0.002864
 5784 Fit      -0.003112
 5785 Fit      -0.003280
 5786 Fit      -0.003363
 5787 Fit      -0.003350
 5788 Fit      -0.002742
 5789 Fit      -0.002077
 5790 Fit      -0.001386
 5791 Fit      -0.000696
 5792 Fit      -0.000022
 5793 Fit       0.000627
 5794 Fit       0.001237
 5795 Fit       0.001788
 5796 Fit       0.002253
 5797 Fit       0.002610
 5798 Fit       0.002835
 5799 Fit       0.002915
 5800 Fit       0.002844
 5801 Fit       0.002626
 5802 Fit       0.002275
 5803 Fit       0.001813
 5804 Fit       0.001267
 5805 Fit       0.001268
 5806 Fit       0.000581
 5807 Fit      -0.000103
 5808 Fit      -0.000751
 5809 Fit      -0.001337
 5810 Fit      -0.001843
 5811 Fit      -0.002258
 5812 Fit      -0.002576
 5813 Fit      -0.002794
 5814 Fit      -0.002909
 5815 Fit      -0.002917
 5816 Fit      -0.003002
 5817 Fit      -0.002412
 5818 Fit      -0.001769
 5819 Fit      -0.001070
 5820 Fit      -0.000338
 5821 Fit       0.000402
 5822 Fit       0.001124
 5823 Fit       0.001801
 5824 Fit       0.002402
 5825 Fit       0.002895
 5826 Fit       0.003250
 5827 Fit       0.003443
 5828 Fit       0.003459
 5829 Fit       0.003299
 5830 Fit       0.002972
 5831 Fit       0.002503
 5832 Fit       0.001922
 5833 Fit       0.001773
 5834 Fit       0.001041
 5835 Fit       0.000307
 5836 Fit      -0.000387
 5837 Fit      -0.001009
 5838 Fit      -0.001535
 5839 Fit      -0.001951
 5840 Fit      -0.002250
 5841 Fit      -0.002432
 5842 Fit      -0.002497
 5843 Fit      -0.002449
 5844 Fit      -0.002094
 5845 Fit      -0.001477
 5846 Fit      -0.000783
 5847 Fit      -0.000031
 5848 Fit       0.000748
 5849 Fit       0.001518
 5850 Fit       0.002239
 5851 Fit       0.002868
 5852 Fit       0.003364
 5853 Fit       0.003693
 5854 Fit       0.003827
 5855 Fit       0.003757
 5856 Fit       0.003489
 5857 Fit       0.003044
 5858 Fit       0.002457
 5859 Fit       0.002145
 5860 Fit       0.001370
 5861 Fit       0.000588
 5862 Fit      -0.000144
 5863 Fit      -0.000784
 5864 Fit      -0.001302
 5865 Fit      -0.001684
 5866 Fit      -0.001928
 5867 Fit      -0.002042
 5868 Fit      -0.002051
 5869 Fit      -0.001939
 5870 Fit      -0.001455
 5871 Fit      -0.000823
 5872 Fit      -0.000086
 5873 Fit       0.000718
 5874 Fit       0.001540
 5875 Fit       0.002323
 5876 Fit       0.003008
 5877 Fit       0.003538
 5878 Fit       0.003864
 5879 Fit       0.003955
 5880 Fit       0.003802
 5881 Fit       0.003420
 5882 Fit       0.002850
 5883 Fit       0.002355
 5884 Fit       0.001562
 5885 Fit       0.000759
 5886 Fit       0.000020
 5887 Fit      -0.000599
 5888 Fit      -0.001066
 5889 Fit      -0.001374
 5890 Fit      -0.001537
 5891 Fit      -0.001598
 5892 Fit      -0.001615
 5893 Fit      -0.001618
 5894 Fit      -0.001550
 5895 Fit      -0.001308
 5896 Fit      -0.000853
 5897 Fit      -0.000215
 5898 Fit       0.000553
 5899 Fit       0.001387
 5900 Fit       0.002210
 5901 Fit       0.002938
 5902 Fit       0.003490
 5903 Fit       0.003797
 5904 Fit       0.003821
 5905 Fit       0.003560
 5906 Fit       0.003049
 5907 Fit       0.002387
 5908 Fit       0.001564
 5909 Fit       0.000736
 5910 Fit       0.000019
 5911 Fit      -0.000513
 5912 Fit      -0.000839
 5913 Fit      -0.000987
 5914 Fit      -0.000998
 5915 Fit      -0.000872
 5916 Fit      -0.000546
 5917 Fit       0.000018
 5918 Fit       0.000780
 5919 Fit       0.001642
 5920 Fit       0.002471
 5921 Fit       0.003122
 5922 Fit       0.003470
 5923 Fit       0.003447
 5924 Fit       0.003058
 5925 Fit       0.002238
 5926 Fit       0.001397
 5927 Fit       0.000591
 5928 Fit       0.000022
 5929 Fit      -0.000235
 5930 Fit      -0.000187
 5931 Fit       0.000183
 5932 Fit       0.000871
 5933 Fit       0.001740
 5934 Fit       0.002524
 5935 Fit       0.002941
 5936 Fit       0.002829
 5937 Fit       0.001917
 5938 Fit       0.001078
 5939 Fit       0.000598
 5940 Fit       0.000858
 5941 Fit       0.001674
 5942 Fit       0.002249
 5943 Fit       0.001448
 5944 Fit       0.001071
 5945 Fit       0.001516
 5946 Fit       0.000659
 5947 Fit       0.000217
 5948 Fit       0.000521
 5949 Fit       0.001358
 5950 Fit       0.001907
 5951 Fit       0.001826
 5952 Fit       0.000950
 5953 Fit       0.000149
 5954 Fit      -0.000383
 5955 Fit      -0.000591
 5956 Fit      -0.000501
 5957 Fit      -0.000104
 5958 Fit       0.000610
 5959 Fit       0.001499
 5960 Fit       0.002281
 5961 Fit       0.002661
 5962 Fit       0.002483
 5963 Fit       0.001981
 5964 Fit       0.001116
 5965 Fit       0.000275
 5966 Fit      -0.000424
 5967 Fit      -0.000918
 5968 Fit      -0.001195
 5969 Fit      -0.001291
 5970 Fit      -0.001260
 5971 Fit      -0.001112
 5972 Fit      -0.000775
 5973 Fit      -0.000193
 5974 Fit       0.000595
 5975 Fit       0.001484
 5976 Fit       0.002327
 5977 Fit       0.002967
 5978 Fit       0.003275
 5979 Fit       0.003185
 5980 Fit       0.002720
 5981 Fit       0.001970
 5982 Fit       0.001131
 5983 Fit       0.000306
 5984 Fit      -0.000429
 5985 Fit      -0.001024
 5986 Fit      -0.001453
 5987 Fit      -0.001714
 5988 Fit      -0.001825
 5989 Fit      -0.001830
 5990 Fit      -0.001798
 5991 Fit      -0.001711
 5992 Fit      -0.001478
 5993 Fit      -0.001017
 5994 Fit      -0.000354
 5995 Fit       0.000447
 5996 Fit       0.001315
 5997 Fit       0.002164
 5998 Fit       0.002901
 5999 Fit       0.003437
 6000 Fit       0.003702
 6001 Fit       0.003662
 6002 Fit       0.003322
 6003 Fit       0.002732
 6004 Fit       0.001794
 6005 Fit       0.000970
 6006 Fit       0.000163
 6007 Fit      -0.000573
 6008 Fit      -0.001197
 6009 Fit      -0.001686
 6010 Fit      -0.002031
 6011 Fit      -0.002232
 6012 Fit      -0.002299
 6013 Fit      -0.002250
 6014 Fit      -0.002064
 6015 Fit      -0.001569
 6016 Fit      -0.000907
 6017 Fit      -0.000131
 6018 Fit       0.000715
 6019 Fit       0.001575
 6020 Fit       0.002387
 6021 Fit       0.003083
 6022 Fit       0.003600
 6023 Fit       0.003888
 6024 Fit       0.003917
 6025 Fit       0.003686
 6026 Fit       0.003221
 6027 Fit       0.002568
 6028 Fit       0.001468
 6029 Fit       0.000686
 6030 Fit      -0.000077
 6031 Fit      -0.000779
 6032 Fit      -0.001392
 6033 Fit      -0.001897
 6034 Fit      -0.002285
 6035 Fit      -0.002553
 6036 Fit      -0.002702
 6037 Fit      -0.002732
 6038 Fit      -0.002168
 6039 Fit      -0.001513
 6040 Fit      -0.000776
 6041 Fit       0.000021
 6042 Fit       0.000846
 6043 Fit       0.001658
 6044 Fit       0.002409
 6045 Fit       0.003051
 6046 Fit       0.003538
 6047 Fit       0.003833
 6048 Fit       0.003913
 6049 Fit       0.003770
 6050 Fit       0.003418
 6051 Fit       0.002886
 6052 Fit       0.002219
 6053 Fit       0.001015
 6054 Fit       0.000278
 6055 Fit      -0.000435
 6056 Fit      -0.001093
 6057 Fit      -0.001675
 6058 Fit      -0.002166
 6059 Fit      -0.002561
 6060 Fit      -0.002859
 6061 Fit      -0.003059
 6062 Fit      -0.003158
 6063 Fit      -0.003149
 6064 Fit      -0.002424
 6065 Fit      -0.001737
 6066 Fit      -0.000995
 6067 Fit      -0.000215
 6068 Fit       0.000575
 6069 Fit       0.001345
 6070 Fit       0.002059
 6071 Fit       0.002681
 6072 Fit       0.003174
 6073 Fit       0.003505
 6074 Fit       0.003652
 6075 Fit       0.003603
 6076 Fit       0.003363
 6077 Fit       0.002950
 6078 Fit       0.002394
 6079 Fit       0.001734
 6080 Fit       0.000470
 6081 Fit      -0.000196
 6082 Fit      -0.000837
 6083 Fit      -0.001431
 6084 Fit      -0.001961
 6085 Fit      -0.002420
 6086 Fit      -0.002806
 6087 Fit      -0.003121
 6088 Fit      -0.003367
 6089 Fit      -0.003337
 6090 Fit      -0.002686
 6091 Fit      -0.001989
 6092 Fit      -0.001260
 6093 Fit      -0.000522
 6094 Fit       0.000207
 6095 Fit       0.000910
 6096 Fit       0.001563
 6097 Fit       0.002142
 6098 Fit       0.002616
 6099 Fit       0.002959
 6100 Fit       0.003149
 6101 Fit       0.003174
 6102 Fit       0.003033
 6103 Fit       0.002734
 6104 Fit       0.002297
 6105 Fit       0.001751
 6106 Fit       0.001130
 6107 Fit      -0.000126
 6108 Fit      -0.000703
 6109 Fit      -0.001257
 6110 Fit      -0.001771
 6111 Fit      -0.002237
 6112 Fit      -0.002653
 6113 Fit      -0.003020
 6114 Fit      -0.003343
 6115 Fit      -0.002249
 6116 Fit      -0.001545
 6117 Fit      -0.000872
 6118 Fit      -0.000229
 6119 Fit       0.000385
 6120 Fit       0.000958
 6121 Fit       0.001474
 6122 Fit       0.001909
 6123 Fit       0.002241
 6124 Fit       0.002452
 6125 Fit       0.002529
 6126 Fit       0.002466
 6127 Fit       0.002267
 6128 Fit       0.001945
 6129 Fit       0.001518
 6130 Fit       0.001012
 6131 Fit       0.000455
 6132 Fit      -0.000726
 6133 Fit      -0.001223
 6134 Fit      -0.001696
 6135 Fit      -0.002138
 6136 Fit      -0.002546
 6137 Fit      -0.002926
 6138 Fit      -0.003282
 6139 Fit      -0.001605
 6140 Fit      -0.001024
 6141 Fit      -0.000481
 6142 Fit       0.000033
 6143 Fit       0.000513
 6144 Fit       0.000939
 6145 Fit       0.001292
 6146 Fit       0.001552
 6147 Fit       0.001703
 6148 Fit       0.001733
 6149 Fit       0.001643
 6150 Fit       0.001435
 6151 Fit       0.001125
 6152 Fit       0.000730
 6153 Fit       0.000273
 6154 Fit      -0.000221
 6155 Fit      -0.001288
 6156 Fit      -0.001688
 6157 Fit      -0.002069
 6158 Fit      -0.002431
 6159 Fit      -0.002781
 6160 Fit      -0.003134
 6161 Fit      -0.001669
 6162 Fit      -0.001232
 6163 Fit      -0.000816
 6164 Fit      -0.000414
 6165 Fit      -0.000038
 6166 Fit       0.000296
 6167 Fit       0.000567
 6168 Fit       0.000757
 6169 Fit       0.000854
 6170 Fit       0.000850
 6171 Fit       0.000745
 6172 Fit       0.000547
 6173 Fit       0.000266
 6174 Fit      -0.000078
 6175 Fit      -0.000466
 6176 Fit      -0.000875
 6177 Fit      -0.001771
 6178 Fit      -0.002072
 6179 Fit      -0.002360
 6180 Fit      -0.002647
 6181 Fit      -0.002955
 6182 Fit      -0.001591
 6183 Fit      -0.001302
 6184 Fit      -0.001006
 6185 Fit      -0.000718
 6186 Fit      -0.000460
 6187 Fit      -0.000249
 6188 Fit      -0.000104
 6189 Fit      -0.000035
 6190 Fit      -0.000049
 6191 Fit      -0.000145
 6192 Fit      -0.000316
 6193 Fit      -0.000550
 6194 Fit      -0.000830
 6195 Fit      -0.001139
 6196 Fit      -0.001458
 6197 Fit      -0.002149
 6198 Fit      -0.002343
 6199 Fit      -0.002535
 6200 Fit      -0.002751
 6201 Fit      -0.003032
 6202 Fit      -0.001935
 6203 Fit      -0.001773
 6204 Fit      -0.001581
 6205 Fit      -0.001381
 6206 Fit      -0.001196
 6207 Fit      -0.001044
 6208 Fit      -0.000940
 6209 Fit      -0.000894
 6210 Fit      -0.000911
 6211 Fit      -0.000991
 6212 Fit      -0.001124
 6213 Fit      -0.001302
 6214 Fit      -0.001508
 6215 Fit      -0.001726
 6216 Fit      -0.001943
 6217 Fit      -0.002410
 6218 Fit      -0.002499
 6219 Fit      -0.002601
 6220 Fit      -0.002767
 6221 Fit      -0.002260
 6222 Fit      -0.002175
 6223 Fit      -0.002055
 6224 Fit      -0.001927
 6225 Fit      -0.001812
 6226 Fit      -0.001726
 6227 Fit      -0.001681
 6228 Fit      -0.001683
 6229 Fit      -0.001731
 6230 Fit      -0.001818
 6231 Fit      -0.001934
 6232 Fit      -0.002064
 6233 Fit      -0.002194
 6234 Fit      -0.002311
 6235 Fit      -0.002571
 6236 Fit      -0.002550
 6237 Fit      -0.002561
 6238 Fit      -0.002649
 6239 Fit      -0.002607
 6240 Fit      -0.002539
 6241 Fit      -0.002466
 6242 Fit      -0.002404
 6243 Fit      -0.002364
 6244 Fit      -0.002354
 6245 Fit      -0.002373
 6246 Fit      -0.002416
 6247 Fit      -0.002472
 6248 Fit      -0.002527
 6249 Fit      -0.002567
 6250 Fit      -0.002582
 6251 Fit      -0.002684
 6252 Fit      -0.002552
 6253 Fit      -0.002469
 6254 Fit      -0.003071
 6255 Fit      -0.003057
 6256 Fit      -0.003022
 6257 Fit      -0.002982
 6258 Fit      -0.002947
 6259 Fit      -0.002926
 6260 Fit      -0.002921
 6261 Fit      -0.002926
 6262 Fit      -0.002931
 6263 Fit      -0.002922
 6264 Fit      -0.002883
 6265 Fit      -0.002803
 -----------------------------------------------------------------
 Leave Link  602 at Thu Nov  2 13:06:27 2023, MaxMem=   134217728 cpu:               0.4 elap:               0.4

 Test job not archived.
 1\1\GINC-LAC-395\FOpt\RHF\6-31G(d)\C2Cl6\RAHNAMOU\02-Nov-2023\0\\#HF/6
 -31G* SCF=tight Pop=MK iop(6/33=2) iop(6/42=6) opt\\mobley_1278715\\0,
 1\C,0.2095613057,-0.3698879535,-0.6671573847\C,-0.2090646046,0.3698956
 513,0.6671553896\Cl,-1.195392188,1.7900509438,0.2920328578\Cl,-1.14666
 90986,-0.7196005849,1.6987668709\Cl,1.231701683,0.8931641844,1.5507542
 186\Cl,1.1471651942,0.7195960532,-1.6987820642\Cl,-1.2311976754,-0.893
 1932185,-1.5507527592\Cl,1.1958953837,-1.790025076,-0.2920171289\\Vers
 ion=ES64L-G16RevC.01\State=1-A\HF=-2832.5519553\RMSD=6.533e-09\RMSF=4.
 397e-06\Dipole=0.0000037,0.0000021,0.0000024\Quadrupole=0.3976397,0.17
 30911,-0.5707308,0.1870144,0.3368778,-0.5957317\PG=C01 [X(C2Cl6)]\\@


 The number of Unix installations has grown to 10,
  with more expected.
                  -- The Unix Programmer's Manual,
                     2nd Edition, June, 1972.
 Job cpu time:       0 days  0 hours  1 minutes  0.7 seconds.
 Elapsed time:       0 days  0 hours  1 minutes  0.4 seconds.
 File lengths (MBytes):  RWF=    272 Int=      0 D2E=      0 Chk=     32 Scr=     32
 Normal termination of Gaussian 16 at Thu Nov  2 13:06:27 2023.
