 Entering Gaussian System, Link 0=/opt/software/Gaussian/g16-AVX2-C.01/g16/g16
 Input=mobley_1139153.com
 Output=mobley_1139153.log
 Initial command:
 /opt/software/Gaussian/g16-AVX2-C.01/g16/l1.exe "/mnt/gs21/scratch/rahnamou/Gau-30955.inp" -scrdir="/mnt/gs21/scratch/rahnamou/"
 Entering Link 1 = /opt/software/Gaussian/g16-AVX2-C.01/g16/l1.exe PID=     30966.
  
 Copyright (c) 1988-2019, Gaussian, Inc.  All Rights Reserved.
  
 This is part of the Gaussian(R) 16 program.  It is based on
 the Gaussian(R) 09 system (copyright 2009, Gaussian, Inc.),
 the Gaussian(R) 03 system (copyright 2003, Gaussian, Inc.),
 the Gaussian(R) 98 system (copyright 1998, Gaussian, Inc.),
 the Gaussian(R) 94 system (copyright 1995, Gaussian, Inc.),
 the Gaussian 92(TM) system (copyright 1992, Gaussian, Inc.),
 the Gaussian 90(TM) system (copyright 1990, Gaussian, Inc.),
 the Gaussian 88(TM) system (copyright 1988, Gaussian, Inc.),
 the Gaussian 86(TM) system (copyright 1986, Carnegie Mellon
 University), and the Gaussian 82(TM) system (copyright 1983,
 Carnegie Mellon University). Gaussian is a federally registered
 trademark of Gaussian, Inc.
  
 This software contains proprietary and confidential information,
 including trade secrets, belonging to Gaussian, Inc.
  
 This software is provided under written license and may be
 used, copied, transmitted, or stored only in accord with that
 written license.
  
 The following legend is applicable only to US Government
 contracts under FAR:
  
                    RESTRICTED RIGHTS LEGEND
  
 Use, reproduction and disclosure by the US Government is
 subject to restrictions as set forth in subparagraphs (a)
 and (c) of the Commercial Computer Software - Restricted
 Rights clause in FAR 52.227-19.
  
 Gaussian, Inc.
 340 Quinnipiac St., Bldg. 40, Wallingford CT 06492
  
  
 ---------------------------------------------------------------
 Warning -- This program may not be used in any manner that
 competes with the business of Gaussian, Inc. or will provide
 assistance to any competitor of Gaussian, Inc.  The licensee
 of this program is prohibited from giving any competitor of
 Gaussian, Inc. access to this program.  By using this program,
 the user acknowledges that Gaussian, Inc. is engaged in the
 business of creating and licensing software in the field of
 computational chemistry and represents and warrants to the
 licensee that it is not a competitor of Gaussian, Inc. and that
 it will not use this program in any manner prohibited above.
 ---------------------------------------------------------------
  

 Cite this work as:
 Gaussian 16, Revision C.01,
 M. J. Frisch, G. W. Trucks, H. B. Schlegel, G. E. Scuseria, 
 M. A. Robb, J. R. Cheeseman, G. Scalmani, V. Barone, 
 G. A. Petersson, H. Nakatsuji, X. Li, M. Caricato, A. V. Marenich, 
 J. Bloino, B. G. Janesko, R. Gomperts, B. Mennucci, H. P. Hratchian, 
 J. V. Ortiz, A. F. Izmaylov, J. L. Sonnenberg, D. Williams-Young, 
 F. Ding, F. Lipparini, F. Egidi, J. Goings, B. Peng, A. Petrone, 
 T. Henderson, D. Ranasinghe, V. G. Zakrzewski, J. Gao, N. Rega, 
 G. Zheng, W. Liang, M. Hada, M. Ehara, K. Toyota, R. Fukuda, 
 J. Hasegawa, M. Ishida, T. Nakajima, Y. Honda, O. Kitao, H. Nakai, 
 T. Vreven, K. Throssell, J. A. Montgomery, Jr., J. E. Peralta, 
 F. Ogliaro, M. J. Bearpark, J. J. Heyd, E. N. Brothers, K. N. Kudin, 
 V. N. Staroverov, T. A. Keith, R. Kobayashi, J. Normand, 
 K. Raghavachari, A. P. Rendell, J. C. Burant, S. S. Iyengar, 
 J. Tomasi, M. Cossi, J. M. Millam, M. Klene, C. Adamo, R. Cammi, 
 J. W. Ochterski, R. L. Martin, K. Morokuma, O. Farkas, 
 J. B. Foresman, and D. J. Fox, Gaussian, Inc., Wallingford CT, 2019.
 
 ******************************************
 Gaussian 16:  ES64L-G16RevC.01  3-Jul-2019
                 2-Nov-2023 
 ******************************************
 %chk=mobley_1139153.chk
 %mem=1GB
 %NProcShared=1
 Will use up to    1 processors via shared memory.
 -------------------------------------------------------
 #HF/6-31G* SCF=tight Pop=MK iop(6/33=2) iop(6/42=6) opt
 -------------------------------------------------------
 1/18=20,19=15,38=1/1,3;
 2/9=110,12=2,17=6,18=5,40=1/2;
 3/5=1,6=6,7=1,11=9,25=1,30=1,71=1/1,2,3;
 4//1;
 5/5=2,32=2,38=5/2;
 6/7=2,8=2,9=2,10=2,15=8,20=1,28=1,33=2,42=6/1,2;
 7//1,2,3,16;
 1/18=20,19=15/3(2);
 2/9=110/2;
 99//99;
 2/9=110/2;
 3/5=1,6=6,7=1,11=9,25=1,30=1,71=1/1,2,3;
 4/5=5,16=3,69=1/1;
 5/5=2,32=2,38=5/2;
 7//1,2,3,16;
 1/18=20,19=15/3(-5);
 2/9=110/2;
 6/7=2,8=2,9=2,10=2,15=8,19=2,20=1,28=1,33=2,42=6/1,2;
 99/9=1/99;
 --------------
 mobley_1139153
 --------------
 Symbolic Z-matrix:
 Charge =  0 Multiplicity = 1
 C                     1.236     1.742    -0.083 
 C                     0.297     1.074     0.928 
 C                     1.14      0.282     1.933 
 C                    -0.719     0.17      0.192 
 C                    -0.138    -0.995    -0.66 
 C                     1.192    -1.494    -0.066 
 C                    -1.148    -2.162    -0.624 
 C                     0.084    -0.595    -2.125 
 H                     0.668     2.319    -0.82 
 H                     1.937     2.421     0.413 
 H                     1.817     0.99     -0.628 
 H                    -0.221     1.873     1.469 
 H                     0.508    -0.214     2.678 
 H                     1.723    -0.492     1.421 
 H                     1.847     0.922     2.466 
 H                    -1.399    -0.278     0.93 
 H                    -1.357     0.798    -0.446 
 H                     1.619    -2.315    -0.649 
 H                     1.05     -1.865     0.957 
 H                     1.934    -0.689    -0.025 
 H                    -0.788    -3.014    -1.211 
 H                    -2.118    -1.859    -1.034 
 H                    -1.315    -2.511     0.401 
 H                     0.493    -1.432    -2.704 
 H                     0.795     0.233    -2.215 
 H                    -0.856    -0.296    -2.6 
 

 GradGradGradGradGradGradGradGradGradGradGradGradGradGradGradGradGradGrad
 Berny optimization.
 Initialization pass.
                           ----------------------------
                           !    Initial Parameters    !
                           ! (Angstroms and Degrees)  !
 --------------------------                            --------------------------
 ! Name  Definition              Value          Derivative Info.                !
 --------------------------------------------------------------------------------
 ! R1    R(1,2)                  1.533          estimate D2E/DX2                !
 ! R2    R(1,9)                  1.0949         estimate D2E/DX2                !
 ! R3    R(1,10)                 1.0947         estimate D2E/DX2                !
 ! R4    R(1,11)                 1.0955         estimate D2E/DX2                !
 ! R5    R(2,3)                  1.5323         estimate D2E/DX2                !
 ! R6    R(2,4)                  1.5463         estimate D2E/DX2                !
 ! R7    R(2,12)                 1.0952         estimate D2E/DX2                !
 ! R8    R(3,13)                 1.0957         estimate D2E/DX2                !
 ! R9    R(3,14)                 1.096          estimate D2E/DX2                !
 ! R10   R(3,15)                 1.0925         estimate D2E/DX2                !
 ! R11   R(4,5)                  1.5559         estimate D2E/DX2                !
 ! R12   R(4,16)                 1.099          estimate D2E/DX2                !
 ! R13   R(4,17)                 1.0993         estimate D2E/DX2                !
 ! R14   R(5,6)                  1.5397         estimate D2E/DX2                !
 ! R15   R(5,7)                  1.5438         estimate D2E/DX2                !
 ! R16   R(5,8)                  1.5348         estimate D2E/DX2                !
 ! R17   R(6,18)                 1.0937         estimate D2E/DX2                !
 ! R18   R(6,19)                 1.0974         estimate D2E/DX2                !
 ! R19   R(6,20)                 1.0956         estimate D2E/DX2                !
 ! R20   R(7,21)                 1.0955         estimate D2E/DX2                !
 ! R21   R(7,22)                 1.0958         estimate D2E/DX2                !
 ! R22   R(7,23)                 1.0956         estimate D2E/DX2                !
 ! R23   R(8,24)                 1.0969         estimate D2E/DX2                !
 ! R24   R(8,25)                 1.0951         estimate D2E/DX2                !
 ! R25   R(8,26)                 1.0948         estimate D2E/DX2                !
 ! A1    A(2,1,9)              110.8429         estimate D2E/DX2                !
 ! A2    A(2,1,10)             111.327          estimate D2E/DX2                !
 ! A3    A(2,1,11)             110.722          estimate D2E/DX2                !
 ! A4    A(9,1,10)             108.078          estimate D2E/DX2                !
 ! A5    A(9,1,11)             107.5791         estimate D2E/DX2                !
 ! A6    A(10,1,11)            108.1533         estimate D2E/DX2                !
 ! A7    A(1,2,3)              108.7106         estimate D2E/DX2                !
 ! A8    A(1,2,4)              110.078          estimate D2E/DX2                !
 ! A9    A(1,2,12)             107.3129         estimate D2E/DX2                !
 ! A10   A(3,2,4)              111.8068         estimate D2E/DX2                !
 ! A11   A(3,2,12)             108.2589         estimate D2E/DX2                !
 ! A12   A(4,2,12)             110.5399         estimate D2E/DX2                !
 ! A13   A(2,3,13)             111.2607         estimate D2E/DX2                !
 ! A14   A(2,3,14)             110.5658         estimate D2E/DX2                !
 ! A15   A(2,3,15)             111.9146         estimate D2E/DX2                !
 ! A16   A(13,3,14)            107.7457         estimate D2E/DX2                !
 ! A17   A(13,3,15)            107.8635         estimate D2E/DX2                !
 ! A18   A(14,3,15)            107.3011         estimate D2E/DX2                !
 ! A19   A(2,4,5)              116.9382         estimate D2E/DX2                !
 ! A20   A(2,4,16)             108.9799         estimate D2E/DX2                !
 ! A21   A(2,4,17)             108.8799         estimate D2E/DX2                !
 ! A22   A(5,4,16)             107.071          estimate D2E/DX2                !
 ! A23   A(5,4,17)             109.0667         estimate D2E/DX2                !
 ! A24   A(16,4,17)            105.2784         estimate D2E/DX2                !
 ! A25   A(4,5,6)              110.7306         estimate D2E/DX2                !
 ! A26   A(4,5,7)              107.996          estimate D2E/DX2                !
 ! A27   A(4,5,8)              112.4315         estimate D2E/DX2                !
 ! A28   A(6,5,7)              108.128          estimate D2E/DX2                !
 ! A29   A(6,5,8)              109.1333         estimate D2E/DX2                !
 ! A30   A(7,5,8)              108.2949         estimate D2E/DX2                !
 ! A31   A(5,6,18)             112.0158         estimate D2E/DX2                !
 ! A32   A(5,6,19)             110.9415         estimate D2E/DX2                !
 ! A33   A(5,6,20)             111.182          estimate D2E/DX2                !
 ! A34   A(18,6,19)            107.076          estimate D2E/DX2                !
 ! A35   A(18,6,20)            107.8839         estimate D2E/DX2                !
 ! A36   A(19,6,20)            107.5269         estimate D2E/DX2                !
 ! A37   A(5,7,21)             111.1265         estimate D2E/DX2                !
 ! A38   A(5,7,22)             111.1846         estimate D2E/DX2                !
 ! A39   A(5,7,23)             111.2442         estimate D2E/DX2                !
 ! A40   A(21,7,22)            107.7858         estimate D2E/DX2                !
 ! A41   A(21,7,23)            107.6774         estimate D2E/DX2                !
 ! A42   A(22,7,23)            107.6497         estimate D2E/DX2                !
 ! A43   A(5,8,24)             111.0347         estimate D2E/DX2                !
 ! A44   A(5,8,25)             111.6802         estimate D2E/DX2                !
 ! A45   A(5,8,26)             111.1693         estimate D2E/DX2                !
 ! A46   A(24,8,25)            106.9474         estimate D2E/DX2                !
 ! A47   A(24,8,26)            107.4296         estimate D2E/DX2                !
 ! A48   A(25,8,26)            108.3789         estimate D2E/DX2                !
 ! D1    D(9,1,2,3)            179.9917         estimate D2E/DX2                !
 ! D2    D(9,1,2,4)             57.2141         estimate D2E/DX2                !
 ! D3    D(9,1,2,12)           -63.1321         estimate D2E/DX2                !
 ! D4    D(10,1,2,3)           -59.6707         estimate D2E/DX2                !
 ! D5    D(10,1,2,4)           177.5517         estimate D2E/DX2                !
 ! D6    D(10,1,2,12)           57.2055         estimate D2E/DX2                !
 ! D7    D(11,1,2,3)            60.6805         estimate D2E/DX2                !
 ! D8    D(11,1,2,4)           -62.097          estimate D2E/DX2                !
 ! D9    D(11,1,2,12)          177.5567         estimate D2E/DX2                !
 ! D10   D(1,2,3,13)           179.9745         estimate D2E/DX2                !
 ! D11   D(1,2,3,14)           -60.336          estimate D2E/DX2                !
 ! D12   D(1,2,3,15)            59.2227         estimate D2E/DX2                !
 ! D13   D(4,2,3,13)           -58.2965         estimate D2E/DX2                !
 ! D14   D(4,2,3,14)            61.3931         estimate D2E/DX2                !
 ! D15   D(4,2,3,15)          -179.0482         estimate D2E/DX2                !
 ! D16   D(12,2,3,13)           63.705          estimate D2E/DX2                !
 ! D17   D(12,2,3,14)         -176.6054         estimate D2E/DX2                !
 ! D18   D(12,2,3,15)          -57.0467         estimate D2E/DX2                !
 ! D19   D(1,2,4,5)             59.9633         estimate D2E/DX2                !
 ! D20   D(1,2,4,16)          -178.5034         estimate D2E/DX2                !
 ! D21   D(1,2,4,17)           -64.1651         estimate D2E/DX2                !
 ! D22   D(3,2,4,5)            -60.975          estimate D2E/DX2                !
 ! D23   D(3,2,4,16)            60.5582         estimate D2E/DX2                !
 ! D24   D(3,2,4,17)           174.8966         estimate D2E/DX2                !
 ! D25   D(12,2,4,5)           178.3425         estimate D2E/DX2                !
 ! D26   D(12,2,4,16)          -60.1242         estimate D2E/DX2                !
 ! D27   D(12,2,4,17)           54.2141         estimate D2E/DX2                !
 ! D28   D(2,4,5,6)             30.0014         estimate D2E/DX2                !
 ! D29   D(2,4,5,7)            148.2136         estimate D2E/DX2                !
 ! D30   D(2,4,5,8)            -92.3688         estimate D2E/DX2                !
 ! D31   D(16,4,5,6)           -92.5249         estimate D2E/DX2                !
 ! D32   D(16,4,5,7)            25.6874         estimate D2E/DX2                !
 ! D33   D(16,4,5,8)           145.105          estimate D2E/DX2                !
 ! D34   D(17,4,5,6)           154.0348         estimate D2E/DX2                !
 ! D35   D(17,4,5,7)           -87.7529         estimate D2E/DX2                !
 ! D36   D(17,4,5,8)            31.6647         estimate D2E/DX2                !
 ! D37   D(4,5,6,18)           179.9412         estimate D2E/DX2                !
 ! D38   D(4,5,6,19)            60.3455         estimate D2E/DX2                !
 ! D39   D(4,5,6,20)           -59.2659         estimate D2E/DX2                !
 ! D40   D(7,5,6,18)            61.8094         estimate D2E/DX2                !
 ! D41   D(7,5,6,19)           -57.7864         estimate D2E/DX2                !
 ! D42   D(7,5,6,20)          -177.3978         estimate D2E/DX2                !
 ! D43   D(8,5,6,18)           -55.7844         estimate D2E/DX2                !
 ! D44   D(8,5,6,19)          -175.3802         estimate D2E/DX2                !
 ! D45   D(8,5,6,20)            65.0085         estimate D2E/DX2                !
 ! D46   D(4,5,7,21)           179.9923         estimate D2E/DX2                !
 ! D47   D(4,5,7,22)            59.9289         estimate D2E/DX2                !
 ! D48   D(4,5,7,23)           -60.0414         estimate D2E/DX2                !
 ! D49   D(6,5,7,21)           -60.1417         estimate D2E/DX2                !
 ! D50   D(6,5,7,22)           179.7948         estimate D2E/DX2                !
 ! D51   D(6,5,7,23)            59.8245         estimate D2E/DX2                !
 ! D52   D(8,5,7,21)            57.9893         estimate D2E/DX2                !
 ! D53   D(8,5,7,22)           -62.0742         estimate D2E/DX2                !
 ! D54   D(8,5,7,23)           177.9555         estimate D2E/DX2                !
 ! D55   D(4,5,8,24)          -179.9751         estimate D2E/DX2                !
 ! D56   D(4,5,8,25)            60.7526         estimate D2E/DX2                !
 ! D57   D(4,5,8,26)           -60.4328         estimate D2E/DX2                !
 ! D58   D(6,5,8,24)            56.7565         estimate D2E/DX2                !
 ! D59   D(6,5,8,25)           -62.5157         estimate D2E/DX2                !
 ! D60   D(6,5,8,26)           176.2989         estimate D2E/DX2                !
 ! D61   D(7,5,8,24)           -60.7319         estimate D2E/DX2                !
 ! D62   D(7,5,8,25)           179.9959         estimate D2E/DX2                !
 ! D63   D(7,5,8,26)            58.8105         estimate D2E/DX2                !
 --------------------------------------------------------------------------------
 Trust Radius=3.00D-01 FncErr=1.00D-07 GrdErr=1.00D-07 EigMax=2.50D+02 EigMin=1.00D-04
 Number of steps in this run=    146 maximum allowed number of steps=    156.
 GradGradGradGradGradGradGradGradGradGradGradGradGradGradGradGradGradGrad

                          Input orientation:                          
 ---------------------------------------------------------------------
 Center     Atomic      Atomic             Coordinates (Angstroms)
 Number     Number       Type             X           Y           Z
 ---------------------------------------------------------------------
      1          6           0        1.236000    1.742000   -0.083000
      2          6           0        0.297000    1.074000    0.928000
      3          6           0        1.140000    0.282000    1.933000
      4          6           0       -0.719000    0.170000    0.192000
      5          6           0       -0.138000   -0.995000   -0.660000
      6          6           0        1.192000   -1.494000   -0.066000
      7          6           0       -1.148000   -2.162000   -0.624000
      8          6           0        0.084000   -0.595000   -2.125000
      9          1           0        0.668000    2.319000   -0.820000
     10          1           0        1.937000    2.421000    0.413000
     11          1           0        1.817000    0.990000   -0.628000
     12          1           0       -0.221000    1.873000    1.469000
     13          1           0        0.508000   -0.214000    2.678000
     14          1           0        1.723000   -0.492000    1.421000
     15          1           0        1.847000    0.922000    2.466000
     16          1           0       -1.399000   -0.278000    0.930000
     17          1           0       -1.357000    0.798000   -0.446000
     18          1           0        1.619000   -2.315000   -0.649000
     19          1           0        1.050000   -1.865000    0.957000
     20          1           0        1.934000   -0.689000   -0.025000
     21          1           0       -0.788000   -3.014000   -1.211000
     22          1           0       -2.118000   -1.859000   -1.034000
     23          1           0       -1.315000   -2.511000    0.401000
     24          1           0        0.493000   -1.432000   -2.704000
     25          1           0        0.795000    0.233000   -2.215000
     26          1           0       -0.856000   -0.296000   -2.600000
 ---------------------------------------------------------------------
                    Distance matrix (angstroms):
                    1          2          3          4          5
     1  C    0.000000
     2  C    1.532992   0.000000
     3  C    2.490998   1.532298   0.000000
     4  C    2.523655   1.546340   2.549413   0.000000
     5  C    3.116404   2.644188   3.160326   1.555857   0.000000
     6  C    3.236344   2.895459   2.674487   2.547034   1.539720
     7  C    4.606230   3.868905   4.212639   2.507613   1.543789
     8  C    3.310353   3.485934   4.283880   2.568759   1.534767
     9  H    1.094862   2.177882   3.457045   2.750657   3.414357
    10  H    1.094741   2.183858   2.742431   3.488578   4.138358
    11  H    1.095486   2.176831   2.741954   2.788565   2.786265
    12  H    2.132771   1.095174   2.144504   2.186079   3.572808
    13  H    3.461075   2.183109   1.095657   2.798782   3.488484
    14  H    2.736776   2.174599   1.095951   2.812836   2.836704
    15  H    2.746474   2.188846   1.092492   3.510119   4.169771
    16  H    3.471281   2.168945   2.786778   1.098976   2.152280
    17  H    2.783263   2.167895   3.487249   1.099305   2.178671
    18  H    4.114158   3.964837   3.693315   3.514079   2.197628
    19  H    3.758543   3.034068   2.360145   2.802822   2.186992
    20  H    2.529887   2.587691   2.325304   2.797030   2.188617
    21  H    5.290415   4.739651   4.946265   3.480090   2.191452
    22  H    5.012077   4.275998   4.899136   2.752657   2.192435
    23  H    4.982958   3.965917   4.021803   2.754389   2.193013
    24  H    4.182818   4.416999   4.985797   3.524509   2.183361
    25  H    2.648959   3.291464   4.162611   2.844260   2.190091
    26  H    3.855541   3.956399   4.986601   2.833935   2.183512
                    6          7          8          9         10
     6  C    0.000000
     7  C    2.496635   0.000000
     8  C    2.505064   2.495258   0.000000
     9  H    3.921997   4.838970   3.245840   0.000000
    10  H    4.013937   5.621075   4.355607   1.772302   0.000000
    11  H    2.622351   4.327395   2.785054   1.767288   1.773652
    12  H    3.960995   4.639095   4.370456   2.495748   2.464225
    13  H    3.104157   4.176152   4.836708   4.321770   3.757059
    14  H    1.870063   3.900457   3.907819   3.746575   3.089891
    15  H    3.560492   5.294259   5.146527   3.760245   2.543602
    16  H    3.030504   2.455071   3.410690   3.752252   4.322127
    17  H    3.448922   2.972703   2.614569   2.560067   3.771266
    18  H    1.093736   2.771340   2.737371   4.733666   4.864017
    19  H    1.097422   2.723779   3.470559   4.561744   4.410499
    20  H    1.095568   3.468033   2.800239   3.358995   3.140693
    21  H    2.746238   1.095478   2.728982   5.541995   6.293030
    22  H    3.467903   1.095814   2.763473   5.026259   6.070851
    23  H    2.745437   1.095589   3.465391   5.362092   5.907645
    24  H    2.729742   2.748123   1.096855   4.201200   5.162018
    25  H    2.785380   3.470238   1.095082   2.512678   3.605259
    26  H    3.471407   2.733459   1.094818   3.511296   4.925557
                   11         12         13         14         15
    11  H    0.000000
    12  H    3.054594   0.000000
    13  H    3.754029   2.519661   0.000000
    14  H    2.530526   3.061807   1.770186   0.000000
    15  H    3.094893   2.484962   1.768717   1.762611   0.000000
    16  H    3.791813   2.510977   2.587711   3.167611   3.786266
    17  H    3.185006   2.472518   3.776473   3.825727   4.331367
    18  H    3.310992   5.040919   4.088698   2.760262   4.498153
    19  H    3.354331   3.981235   2.445691   1.597922   3.267975
    20  H    1.787831   3.666048   3.092784   1.474532   2.967823
    21  H    4.812269   5.602380   4.964266   4.426401   5.996303
    22  H    4.875024   4.877647   4.835374   4.759096   5.975382
    23  H    4.808874   4.642943   3.712717   3.787638   5.103720
    24  H    3.453815   5.370917   5.518122   4.405919   5.839823
    25  H    2.033741   4.158571   4.921750   3.821950   4.846977
    26  H    3.561953   4.654519   5.452018   4.781014   5.869761
                   16         17         18         19         20
    16  H    0.000000
    17  H    1.747260   0.000000
    18  H    3.968745   4.311445   0.000000
    19  H    2.918373   3.854040   1.762242   0.000000
    20  H    3.491394   3.635807   1.769881   1.768829   0.000000
    21  H    3.527449   3.929419   2.568676   3.065725   3.771141
    22  H    2.621797   2.825688   3.784353   3.741703   4.336552
    23  H    2.296342   3.415941   3.122382   2.513897   3.749288
    24  H    4.256446   3.673413   2.504115   3.728359   3.131385
    25  H    3.868563   2.842480   3.102199   3.811589   2.635053
    26  H    3.571565   2.467297   3.742778   4.329763   3.816959
                   21         22         23         24         25
    21  H    0.000000
    22  H    1.770382   0.000000
    23  H    1.768978   1.768937   0.000000
    24  H    2.524427   3.128666   3.751550   0.000000
    25  H    3.749255   3.775817   4.338789   1.761406   0.000000
    26  H    3.053108   2.547149   3.758046   1.766667   1.775913
                   26
    26  H    0.000000
 Stoichiometry    C8H18
 Framework group  C1[X(C8H18)]
 Deg. of freedom    72
 Full point group                 C1      NOp   1
 Largest Abelian subgroup         C1      NOp   1
 Largest concise Abelian subgroup C1      NOp   1
                         Standard orientation:                         
 ---------------------------------------------------------------------
 Center     Atomic      Atomic             Coordinates (Angstroms)
 Number     Number       Type             X           Y           Z
 ---------------------------------------------------------------------
      1          6           0       -1.816773    1.268959    0.179486
      2          6           0       -1.539757    0.003665   -0.640490
      3          6           0       -1.876818   -1.221041    0.216495
      4          6           0       -0.066787   -0.012179   -1.110888
      5          6           0        1.026761    0.007016   -0.004328
      6          6           0        0.519906   -0.683983    1.274873
      7          6           0        2.246688   -0.782501   -0.525601
      8          6           0        1.485706    1.430298    0.340853
      9          1           0       -1.586770    2.167901   -0.401653
     10          1           0       -2.866116    1.322406    0.486866
     11          1           0       -1.195409    1.290102    1.081456
     12          1           0       -2.217653    0.017734   -1.500528
     13          1           0       -1.693758   -2.151975   -0.331516
     14          1           0       -1.259220   -1.239300    1.121673
     15          1           0       -2.921558   -1.220118    0.535958
     16          1           0        0.104754   -0.911759   -1.718407
     17          1           0        0.097857    0.833886   -1.793191
     18          1           0        1.273660   -0.683288    2.067408
     19          1           0        0.260247   -1.731917    1.078031
     20          1           0       -0.377086   -0.189160    1.663238
     21          1           0        3.051604   -0.801299    0.217251
     22          1           0        2.646971   -0.333551   -1.441585
     23          1           0        1.979971   -1.820409   -0.753470
     24          1           0        2.255834    1.417111    1.121762
     25          1           0        0.659110    2.041610    0.718002
     26          1           0        1.914011    1.930626   -0.533706
 ---------------------------------------------------------------------
 Rotational constants (GHZ):           2.8168507           1.4656155           1.3128523
 Standard basis: 6-31G(d) (6D, 7F)
 There are   156 symmetry adapted cartesian basis functions of A   symmetry.
 There are   156 symmetry adapted basis functions of A   symmetry.
   156 basis functions,   296 primitive gaussians,   156 cartesian basis functions
    33 alpha electrons       33 beta electrons
       nuclear repulsion energy       431.9237185908 Hartrees.
 NAtoms=   26 NActive=   26 NUniq=   26 SFac= 1.00D+00 NAtFMM=   60 NAOKFM=F Big=F
 Integral buffers will be    131072 words long.
 Raffenetti 1 integral format.
 Two-electron integral symmetry is turned on.
 One-electron integrals computed using PRISM.
 NBasis=   156 RedAO= T EigKep=  3.04D-03  NBF=   156
 NBsUse=   156 1.00D-06 EigRej= -1.00D+00 NBFU=   156
 ExpMin= 1.61D-01 ExpMax= 3.05D+03 ExpMxC= 4.57D+02 IAcc=3 IRadAn=         5 AccDes= 0.00D+00
 Harris functional with IExCor=  205 and IRadAn=       5 diagonalized for initial guess.
 HarFok:  IExCor=  205 AccDes= 0.00D+00 IRadAn=         5 IDoV= 1 UseB2=F ITyADJ=14
 ICtDFT=  3500011 ScaDFX=  1.000000  1.000000  1.000000  1.000000
 FoFCou: FMM=F IPFlag=           0 FMFlag=      100000 FMFlg1=           0
         NFxFlg=           0 DoJE=T BraDBF=F KetDBF=T FulRan=T
         wScrn=  0.000000 ICntrl=       500 IOpCl=  0 I1Cent=   200000004 NGrid=           0
         NMat0=    1 NMatS0=      1 NMatT0=    0 NMatD0=    1 NMtDS0=    0 NMtDT0=    0
 Petite list used in FoFCou.
 Keep R1 ints in memory in canonical form, NReq=76925238.
 Requested convergence on RMS density matrix=1.00D-08 within 128 cycles.
 Requested convergence on MAX density matrix=1.00D-06.
 Requested convergence on             energy=1.00D-06.
 No special actions if energy rises.
 SCF Done:  E(RHF) =  -313.375810560     A.U. after   11 cycles
            NFock= 11  Conv=0.62D-08     -V/T= 2.0002
 SCF density gives NOpUse=  1 NOpAll=  1.

 **********************************************************************

            Population analysis using the SCF Density.

 **********************************************************************

 Orbital symmetries:
 BldTbl:  Degeneracy threshold= 1.00D-02
       Occupied  (A) (A) (A) (A) (A) (A) (A) (A) (A) (A) (A) (A)
                 (A) (A) (A) (A) (A) (A) (A) (A) (A) (A) (A) (A)
                 (A) (A) (A) (A) (A) (A) (A) (A) (A)
       Virtual   (A) (A) (A) (A) (A) (A) (A) (A) (A) (A) (A) (A)
                 (A) (A) (A) (A) (A) (A) (A) (A) (A) (A) (A) (A)
                 (A) (A) (A) (A) (A) (A) (A) (A) (A) (A) (A) (A)
                 (A) (A) (A) (A) (A) (A) (A) (A) (A) (A) (A) (A)
                 (A) (A) (A) (A) (A) (A) (A) (A) (A) (A) (A) (A)
                 (A) (A) (A) (A) (A) (A) (A) (A) (A) (A) (A) (A)
                 (A) (A) (A) (A) (A) (A) (A) (A) (A) (A) (A) (A)
                 (A) (A) (A) (A) (A) (A) (A) (A) (A) (A) (A) (A)
                 (A) (A) (A) (A) (A) (A) (A) (A) (A) (A) (A) (A)
                 (A) (A) (A) (A) (A) (A) (A) (A) (A) (A) (A) (A)
                 (A) (A) (A)
 The electronic state is 1-A.
 Alpha  occ. eigenvalues --  -11.23446 -11.22272 -11.21401 -11.20970 -11.20859
 Alpha  occ. eigenvalues --  -11.20729 -11.20622 -11.19269  -1.11863  -1.05195
 Alpha  occ. eigenvalues --   -0.95121  -0.93171  -0.91567  -0.90797  -0.77395
 Alpha  occ. eigenvalues --   -0.72771  -0.65110  -0.61696  -0.60747  -0.58875
 Alpha  occ. eigenvalues --   -0.58097  -0.56398  -0.54950  -0.53225  -0.51450
 Alpha  occ. eigenvalues --   -0.50718  -0.50191  -0.49202  -0.46006  -0.45449
 Alpha  occ. eigenvalues --   -0.44305  -0.43702  -0.40801
 Alpha virt. eigenvalues --    0.21314   0.25756   0.26784   0.28035   0.28845
 Alpha virt. eigenvalues --    0.28984   0.30371   0.30598   0.31103   0.32065
 Alpha virt. eigenvalues --    0.33869   0.34154   0.34775   0.35857   0.36012
 Alpha virt. eigenvalues --    0.37749   0.38383   0.39647   0.41054   0.41524
 Alpha virt. eigenvalues --    0.43785   0.45993   0.47077   0.47559   0.51631
 Alpha virt. eigenvalues --    0.70474   0.71429   0.73708   0.74032   0.75049
 Alpha virt. eigenvalues --    0.76071   0.78478   0.82574   0.87301   0.88769
 Alpha virt. eigenvalues --    0.90091   0.93423   0.94092   0.98089   0.98627
 Alpha virt. eigenvalues --    1.00828   1.01312   1.02860   1.05135   1.08599
 Alpha virt. eigenvalues --    1.12461   1.12662   1.15040   1.15995   1.16833
 Alpha virt. eigenvalues --    1.16986   1.17678   1.18746   1.19167   1.20022
 Alpha virt. eigenvalues --    1.20216   1.22037   1.23258   1.24066   1.25405
 Alpha virt. eigenvalues --    1.26701   1.27656   1.28823   1.29629   1.30630
 Alpha virt. eigenvalues --    1.33748   1.36491   1.38294   1.52155   1.64884
 Alpha virt. eigenvalues --    1.65865   1.70217   1.74155   1.78056   1.81133
 Alpha virt. eigenvalues --    1.84249   1.90037   1.99298   2.02668   2.04476
 Alpha virt. eigenvalues --    2.06885   2.10799   2.11279   2.18917   2.20987
 Alpha virt. eigenvalues --    2.21816   2.24315   2.25627   2.36566   2.37569
 Alpha virt. eigenvalues --    2.39918   2.41383   2.42547   2.47706   2.48960
 Alpha virt. eigenvalues --    2.50751   2.55752   2.58737   2.59301   2.60766
 Alpha virt. eigenvalues --    2.61101   2.62225   2.62620   2.66945   2.72035
 Alpha virt. eigenvalues --    2.79399   2.83560   2.87899   2.91273   2.96112
 Alpha virt. eigenvalues --    3.05482   3.07879   3.08966   3.11467   3.15681
 Alpha virt. eigenvalues --    4.58050   4.66414   4.74141   4.74958   4.79786
 Alpha virt. eigenvalues --    4.81785   5.05181   5.18297
          Condensed to atoms (all electrons):
               1          2          3          4          5          6
     1  C    5.178658   0.340718  -0.073752  -0.070985  -0.000367  -0.009250
     2  C    0.340718   5.040239   0.344733   0.352190  -0.037597  -0.000421
     3  C   -0.073752   0.344733   5.224286  -0.061957  -0.000107  -0.056768
     4  C   -0.070985   0.352190  -0.061957   5.182452   0.340892  -0.064094
     5  C   -0.000367  -0.037597  -0.000107   0.340892   5.026234   0.343299
     6  C   -0.009250  -0.000421  -0.056768  -0.064094   0.343299   5.296684
     7  C   -0.000105   0.003719  -0.000464  -0.066414   0.376215  -0.074332
     8  C   -0.003710   0.000214   0.000022  -0.056307   0.360710  -0.071893
     9  H    0.392111  -0.037897   0.005253  -0.002722  -0.000651   0.000505
    10  H    0.391296  -0.035380  -0.003824   0.004893  -0.000144   0.000198
    11  H    0.393858  -0.037587  -0.004030  -0.004509   0.003635  -0.009113
    12  H   -0.045084   0.416827  -0.042521  -0.039600   0.003715  -0.000305
    13  H    0.005266  -0.038273   0.390546  -0.003730   0.000622  -0.000789
    14  H   -0.004391  -0.043764   0.429999  -0.000735   0.000462  -0.046397
    15  H   -0.003502  -0.034670   0.388920   0.004612  -0.000098   0.001573
    16  H    0.005215  -0.041239  -0.003296   0.402681  -0.046720   0.000413
    17  H   -0.004000  -0.036006   0.004512   0.394156  -0.041100   0.004507
    18  H    0.000029  -0.000063   0.002707   0.004054  -0.026562   0.380564
    19  H    0.001024  -0.001557  -0.023160   0.000138  -0.039216   0.412242
    20  H   -0.005109   0.003394  -0.034004  -0.003487  -0.040569   0.416297
    21  H    0.000004  -0.000098   0.000001   0.005304  -0.036667  -0.004245
    22  H   -0.000001  -0.000001   0.000010  -0.003790  -0.036034   0.005286
    23  H    0.000004  -0.000055   0.000058  -0.005281  -0.034976  -0.004111
    24  H    0.000084  -0.000138   0.000005   0.004744  -0.036394  -0.004274
    25  H   -0.004481   0.000399   0.000032  -0.002171  -0.035710  -0.003297
    26  H    0.000091   0.000182   0.000004  -0.004319  -0.035862   0.005123
               7          8          9         10         11         12
     1  C   -0.000105  -0.003710   0.392111   0.391296   0.393858  -0.045084
     2  C    0.003719   0.000214  -0.037897  -0.035380  -0.037587   0.416827
     3  C   -0.000464   0.000022   0.005253  -0.003824  -0.004030  -0.042521
     4  C   -0.066414  -0.056307  -0.002722   0.004893  -0.004509  -0.039600
     5  C    0.376215   0.360710  -0.000651  -0.000144   0.003635   0.003715
     6  C   -0.074332  -0.071893   0.000505   0.000198  -0.009113  -0.000305
     7  C    5.152482  -0.074763  -0.000015   0.000003  -0.000031  -0.000098
     8  C   -0.074763   5.155282  -0.000576   0.000164  -0.004987  -0.000195
     9  H   -0.000015  -0.000576   0.541928  -0.025459  -0.030269  -0.002600
    10  H    0.000003   0.000164  -0.025459   0.535992  -0.027952  -0.003244
    11  H   -0.000031  -0.004987  -0.030269  -0.027952   0.559616   0.004304
    12  H   -0.000098  -0.000195  -0.002600  -0.003244   0.004304   0.552290
    13  H    0.000021  -0.000000  -0.000111  -0.000048  -0.000064  -0.002601
    14  H   -0.000173  -0.000121  -0.000077   0.000184   0.001792   0.004439
    15  H    0.000005   0.000002  -0.000053   0.002503   0.000102  -0.003398
    16  H   -0.008779   0.004417  -0.000055  -0.000095  -0.000119  -0.002713
    17  H   -0.000247  -0.005870   0.002467  -0.000084   0.000147  -0.002768
    18  H   -0.004478  -0.005114  -0.000004  -0.000003   0.000349   0.000010
    19  H   -0.004583   0.005147  -0.000019  -0.000012   0.000209  -0.000151
    20  H    0.005392  -0.003627   0.000063   0.000339  -0.002397  -0.000160
    21  H    0.388945  -0.003376   0.000000  -0.000000   0.000002   0.000001
    22  H    0.389152  -0.003741  -0.000001  -0.000000   0.000002   0.000002
    23  H    0.389177   0.005017  -0.000000  -0.000000  -0.000000  -0.000005
    24  H   -0.004747   0.389214   0.000020  -0.000003   0.000224   0.000003
    25  H    0.005002   0.391934   0.000155   0.000279  -0.001791  -0.000034
    26  H   -0.004169   0.389561   0.000060  -0.000004   0.000087   0.000007
              13         14         15         16         17         18
     1  C    0.005266  -0.004391  -0.003502   0.005215  -0.004000   0.000029
     2  C   -0.038273  -0.043764  -0.034670  -0.041239  -0.036006  -0.000063
     3  C    0.390546   0.429999   0.388920  -0.003296   0.004512   0.002707
     4  C   -0.003730  -0.000735   0.004612   0.402681   0.394156   0.004054
     5  C    0.000622   0.000462  -0.000098  -0.046720  -0.041100  -0.026562
     6  C   -0.000789  -0.046397   0.001573   0.000413   0.004507   0.380564
     7  C    0.000021  -0.000173   0.000005  -0.008779  -0.000247  -0.004478
     8  C   -0.000000  -0.000121   0.000002   0.004417  -0.005870  -0.005114
     9  H   -0.000111  -0.000077  -0.000053  -0.000055   0.002467  -0.000004
    10  H   -0.000048   0.000184   0.002503  -0.000095  -0.000084  -0.000003
    11  H   -0.000064   0.001792   0.000102  -0.000119   0.000147   0.000349
    12  H   -0.002601   0.004439  -0.003398  -0.002713  -0.002768   0.000010
    13  H    0.549591  -0.031572  -0.024011   0.002514  -0.000050  -0.000097
    14  H   -0.031572   0.588310  -0.031382   0.000051  -0.000180   0.004760
    15  H   -0.024011  -0.031382   0.546474  -0.000047  -0.000088  -0.000051
    16  H    0.002514   0.000051  -0.000047   0.554708  -0.028066  -0.000145
    17  H   -0.000050  -0.000180  -0.000088  -0.028066   0.551253  -0.000087
    18  H   -0.000097   0.004760  -0.000051  -0.000145  -0.000087   0.534907
    19  H    0.001651  -0.022796   0.001088   0.001098  -0.000095  -0.028224
    20  H    0.001343  -0.025046   0.001070   0.000001  -0.000045  -0.027540
    21  H    0.000001   0.000014  -0.000000   0.000339  -0.000171   0.002318
    22  H   -0.000003   0.000001  -0.000000   0.000047   0.001249  -0.000061
    23  H    0.000044  -0.000057  -0.000000   0.002240   0.000092   0.000127
    24  H   -0.000000   0.000002  -0.000000  -0.000116   0.000102   0.002614
    25  H   -0.000001  -0.000048   0.000000  -0.000110   0.000265   0.000155
    26  H    0.000000   0.000003  -0.000000  -0.000017   0.002535  -0.000014
              19         20         21         22         23         24
     1  C    0.001024  -0.005109   0.000004  -0.000001   0.000004   0.000084
     2  C   -0.001557   0.003394  -0.000098  -0.000001  -0.000055  -0.000138
     3  C   -0.023160  -0.034004   0.000001   0.000010   0.000058   0.000005
     4  C    0.000138  -0.003487   0.005304  -0.003790  -0.005281   0.004744
     5  C   -0.039216  -0.040569  -0.036667  -0.036034  -0.034976  -0.036394
     6  C    0.412242   0.416297  -0.004245   0.005286  -0.004111  -0.004274
     7  C   -0.004583   0.005392   0.388945   0.389152   0.389177  -0.004747
     8  C    0.005147  -0.003627  -0.003376  -0.003741   0.005017   0.389214
     9  H   -0.000019   0.000063   0.000000  -0.000001  -0.000000   0.000020
    10  H   -0.000012   0.000339  -0.000000  -0.000000  -0.000000  -0.000003
    11  H    0.000209  -0.002397   0.000002   0.000002  -0.000000   0.000224
    12  H   -0.000151  -0.000160   0.000001   0.000002  -0.000005   0.000003
    13  H    0.001651   0.001343   0.000001  -0.000003   0.000044  -0.000000
    14  H   -0.022796  -0.025046   0.000014   0.000001  -0.000057   0.000002
    15  H    0.001088   0.001070  -0.000000  -0.000000  -0.000000  -0.000000
    16  H    0.001098   0.000001   0.000339   0.000047   0.002240  -0.000116
    17  H   -0.000095  -0.000045  -0.000171   0.001249   0.000092   0.000102
    18  H   -0.028224  -0.027540   0.002318  -0.000061   0.000127   0.002614
    19  H    0.552630  -0.036330   0.000144  -0.000033   0.002464  -0.000058
    20  H   -0.036330   0.576387  -0.000086  -0.000115  -0.000050   0.000137
    21  H    0.000144  -0.000086   0.542832  -0.026978  -0.026892   0.002212
    22  H   -0.000033  -0.000115  -0.026978   0.542166  -0.026930   0.000093
    23  H    0.002464  -0.000050  -0.026892  -0.026930   0.542912  -0.000052
    24  H   -0.000058   0.000137   0.002212   0.000093  -0.000052   0.546032
    25  H   -0.000088   0.001086  -0.000059  -0.000063  -0.000111  -0.027974
    26  H   -0.000105  -0.000069   0.000070   0.002458  -0.000051  -0.027216
              25         26
     1  C   -0.004481   0.000091
     2  C    0.000399   0.000182
     3  C    0.000032   0.000004
     4  C   -0.002171  -0.004319
     5  C   -0.035710  -0.035862
     6  C   -0.003297   0.005123
     7  C    0.005002  -0.004169
     8  C    0.391934   0.389561
     9  H    0.000155   0.000060
    10  H    0.000279  -0.000004
    11  H   -0.001791   0.000087
    12  H   -0.000034   0.000007
    13  H   -0.000001   0.000000
    14  H   -0.000048   0.000003
    15  H    0.000000  -0.000000
    16  H   -0.000110  -0.000017
    17  H    0.000265   0.002535
    18  H    0.000155  -0.000014
    19  H   -0.000088  -0.000105
    20  H    0.001086  -0.000069
    21  H   -0.000059   0.000070
    22  H   -0.000063   0.002458
    23  H   -0.000111  -0.000051
    24  H   -0.027974  -0.027216
    25  H    0.536133  -0.025287
    26  H   -0.025287   0.540183
 Mulliken charges:
               1
     1  C   -0.483621
     2  C   -0.157869
     3  C   -0.487203
     4  C   -0.306013
     5  C   -0.007013
     6  C   -0.517402
     7  C   -0.466717
     8  C   -0.467404
     9  H    0.157945
    10  H    0.160402
    11  H    0.158522
    12  H    0.163878
    13  H    0.149753
    14  H    0.176724
    15  H    0.150955
    16  H    0.157793
    17  H    0.157574
    18  H    0.159851
    19  H    0.178593
    20  H    0.173126
    21  H    0.156385
    22  H    0.157284
    23  H    0.156438
    24  H    0.155486
    25  H    0.165785
    26  H    0.156748
 Sum of Mulliken charges =  -0.00000
 Mulliken charges with hydrogens summed into heavy atoms:
               1
     1  C   -0.006752
     2  C    0.006009
     3  C   -0.009772
     4  C    0.009355
     5  C   -0.007013
     6  C   -0.005832
     7  C    0.003389
     8  C    0.010616
 DipInt: DoE/N= T F RetVal/Mat= T F Init=T NMatP=  1 IDeriv=0 Min/MaxMlt=  0  4
 Entering OneElI...
 OneElI was handed   134152624 working-precision words.
 Multipole integrals L=0 to 4 MinM= 0 MaxM= 0.
 Requested accuracy = 0.1000D-12
 ShPair: Thresh= 1.00D-13 NBox=     0 BxSize= 0.00D+00 RnKept= 1.19D+01
         NSMCal=                 2346 NSMKep=                2302
 PrmmSu-InSpLW:  IPartL=    0 NPrtUS=    1 NPrtUL=    1 DoSpLW=F IThBeg=    0 IThEnd=    0 NThAct=    1.
 PrSmSu:  IncTry=   512 NBBP=           2302 NTPThr=   100 NPartT=    1 Incr=          23 LDynOK=F GPUOK=F.
 PrsmSu:  NPrtUS=   1 ThrOK=F IAlg=2 LenDen=           0 ISkipM=0 DoSpLW=F IThBeg=    0 IThEnd=    0.
 Prism:   IPart=     0 DynPar=F LinDyn=F Incr=          23.
 PRISM was handed   133969146 working-precision words and  2302 shell-pairs
 IPart=  0 NShTot=        2302 NBatch=          39 AvBLen=        59.0
 PrsmSu-ThDecC:  IPartSL=    0    0 NPrtUSL=    1    1 IThBeg=    0 IThEnd=    0 CPU=   -1 GPU=   -1 NThAct=    1.
 PrSmSu:  NxtVal=             24.
 Electronic moments (au):
        -66.00000000          0.05160448          0.02149784          0.00028108
       -642.28660743       -299.65284587       -209.38716883         -0.24861697
          0.11903990         -0.15756942         -8.51941768       -146.35805217
        -25.26312773         70.59634683         68.85945619         76.22068606
        -70.41823827         75.02984430        -94.51556242        -81.47260577
     -11837.83741680      -3269.36560319      -1895.74141281        454.22958152
        666.92584607       -344.82865365       -108.37509967       -179.72834752
        159.90820195      -3333.89721142      -1440.79350179       -719.49047075
       -327.14072142         82.49483519         92.04775411
 Electronic spatial extent (au):  <R**2>=           1151.3266
 DipInt: DoE/N= F T RetVal/Mat= T F Init=T NMatP=  1 IDeriv=0 Min/MaxMlt=  0  4
 Nuclear    moments (au):
         66.00000000         -0.00000000          0.00000000          0.00000000
        599.99290528        257.58932441        167.99924286          0.00000000
         -0.00000000         -0.00000000          7.39053811        143.94242937
         24.45806923        -69.07333783        -65.89475391        -75.29083716
         71.19301739        -73.75847956         91.58155807         80.63483268
       9433.47734659       2150.10762458       1117.85152009       -457.81308356
       -653.31017618        337.75051780        106.79832612        183.47987743
       -162.20737739       2719.08561641        921.54673049        406.49040128
        321.69056469        -82.40199516        -88.76471521
 Total      moments (au):
         -0.00000000          0.05160448          0.02149784          0.00028108
        -42.29370214        -42.06352146        -41.38792597         -0.24861697
          0.11903990         -0.15756942         -1.12887957         -2.41562279
         -0.80505850          1.52300900          2.96470229          0.92984889
          0.77477912          1.27136475         -2.93400435         -0.83777310
      -2404.36007021      -1119.25797862       -777.88989273         -3.58350204
         13.61566990         -7.07813585         -1.57677355          3.75152990
         -2.29917544       -614.81159500       -519.24677130       -313.00006947
         -5.45015673          0.09284004          3.28303890
 Traceless Quadrup. (au):
         -0.37865229         -0.14847160          0.52712389         -0.24861697
          0.11903990         -0.15756942
 Charge=             -0.0000 electrons
 Dipole moment (field-independent basis, Debye):
    X=              0.1312    Y=              0.0546    Z=              0.0007  Tot=              0.1421
 Quadrupole moment (field-independent basis, Debye-Ang):
   XX=            -56.8865   YY=            -56.5769   ZZ=            -55.6682
   XY=             -0.3344   XZ=              0.1601   YZ=             -0.2119
 Traceless Quadrupole moment (field-independent basis, Debye-Ang):
   XX=             -0.5093   YY=             -0.1997   ZZ=              0.7090
   XY=             -0.3344   XZ=              0.1601   YZ=             -0.2119
 Octapole moment (field-independent basis, Debye-Ang**2):
  XXX=             -0.8035  YYY=             -1.7193  ZZZ=             -0.5730  XYY=              1.0840
  XXY=              2.1102  XXZ=              0.6618  XZZ=              0.5515  YZZ=              0.9049
  YYZ=             -2.0883  XYZ=             -0.5963
 Hexadecapole moment (field-independent basis, Debye-Ang**3):
 XXXX=           -905.5973 YYYY=           -421.5662 ZZZZ=           -292.9906 XXXY=             -1.3497
 XXXZ=              5.1283 YYYX=             -2.6660 YYYZ=             -0.5939 ZZZX=              1.4130
 ZZZY=             -0.8660 XXYY=           -231.5675 XXZZ=           -195.5732 YYZZ=           -117.8908
 XXYZ=             -2.0528 YYXZ=              0.0350 ZZXY=              1.2365
 N-N= 4.319237185908D+02 E-N=-1.591933569656D+03  KE= 3.133019336208D+02
 Entering OneElI...
 OneElI was handed   134164038 working-precision words.
 Calculate electrostatic properties
    NBasis =   156  MinDer = 0  MaxDer = 0
    NGrid  =    26  NMatD  =   1
 Requested accuracy = 0.1000D-12
 ShPair: Thresh= 1.00D-13 NBox=     0 BxSize= 0.00D+00 RnKept= 1.19D+01
         NSMCal=                 2346 NSMKep=                2226
 PrmmSu-InSpLW:  IPartL=    0 NPrtUS=    1 NPrtUL=    1 DoSpLW=F IThBeg=    0 IThEnd=    0 NThAct=    1.
 PrSmSu:  IncTry=   512 NBBP=          57876 NTPThr=   100 NPartT=    1 Incr=         512 LDynOK=F GPUOK=F.
 PrsmSu:  NPrtUS=   1 ThrOK=F IAlg=2 LenDen=           0 ISkipM=0 DoSpLW=F IThBeg=    0 IThEnd=    0.
 Prism:   IPart=     0 DynPar=F LinDyn=F Incr=         512.
 PRISM was handed   133992477 working-precision words and  2226 shell-pairs
 IPart=  0 NShTot=       57876 NBatch=        2226 AvBLen=        26.0
 PrsmSu-ThDecC:  IPartSL=    0    0 NPrtUSL=    1    1 IThBeg=    0 IThEnd=    0 CPU=   -1 GPU=   -1 NThAct=    1.
 PrSmSu:  NxtVal=            513.
 --------------------------------------------------------
       Center         ----      EFG at Nuclei      ----
                      3XX-RR        3YY-RR        3ZZ-RR
 --------------------------------------------------------
     1   Atom        0.003025     -0.000684     -0.002341
     2   Atom       -0.003248     -0.007288      0.010535
     3   Atom        0.019706     -0.052503      0.032797
     4   Atom        0.004420      0.020249     -0.024669
     5   Atom       -0.001048      0.006993     -0.005945
     6   Atom        0.033029     -0.017035     -0.015994
     7   Atom        0.000882     -0.005240      0.004358
     8   Atom        0.004508     -0.006330      0.001822
     9   Atom        0.131516     -0.153573      0.022057
    10   Atom       -0.263020      0.146393      0.116627
    11   Atom        0.006302      0.140751     -0.147054
    12   Atom       -0.018689      0.146689     -0.127999
    13   Atom        0.138852     -0.175669      0.036817
    14   Atom       -0.001939      0.132332     -0.130393
    15   Atom       -0.267657      0.148080      0.119577
    16   Atom        0.128357     -0.144625      0.016268
    17   Atom        0.130425     -0.111416     -0.019009
    18   Atom       -0.068852      0.152139     -0.083287
    19   Atom        0.104651     -0.240049      0.135398
    20   Atom       -0.143019      0.046740      0.096279
    21   Atom       -0.091380      0.149913     -0.058533
    22   Atom        0.089462      0.071891     -0.161352
    23   Atom        0.116773     -0.249618      0.132844
    24   Atom       -0.068622      0.142694     -0.074073
    25   Atom       -0.108657      0.008442      0.100216
    26   Atom        0.085072      0.054254     -0.139327
 --------------------------------------------------------
                        XY            XZ            YZ
 --------------------------------------------------------
     1   Atom        0.003560      0.004434      0.004532
     2   Atom        0.000882      0.013390     -0.007216
     3   Atom       -0.003193      0.072684      0.001442
     4   Atom       -0.004613     -0.004803     -0.000079
     5   Atom        0.000556      0.005463      0.007622
     6   Atom        0.020438     -0.003516     -0.003870
     7   Atom        0.009993      0.005150     -0.002667
     8   Atom       -0.015201     -0.002850      0.000092
     9   Atom       -0.076596      0.051703      0.193801
    10   Atom        0.019427      0.120503     -0.008365
    11   Atom        0.000339     -0.206865     -0.005646
    12   Atom        0.003315     -0.211897      0.003886
    13   Atom        0.063338      0.040848     -0.189359
    14   Atom       -0.006402     -0.190824      0.002581
    15   Atom        0.002909      0.126473      0.002373
    16   Atom        0.055280      0.032877     -0.196285
    17   Atom       -0.051216      0.038292      0.207747
    18   Atom       -0.003757     -0.225166     -0.000212
    19   Atom       -0.092085     -0.015556     -0.072502
    20   Atom        0.144976      0.115700     -0.072927
    21   Atom        0.007420     -0.221426      0.001418
    22   Atom       -0.063146      0.136512      0.154486
    23   Atom       -0.104030     -0.021378     -0.088120
    24   Atom        0.004844     -0.223075      0.006006
    25   Atom        0.182735      0.116460     -0.085550
    26   Atom       -0.081237      0.139911      0.160704
 --------------------------------------------------------


 ---------------------------------------------------------------------------------
              Nuclear Quadrupole Coupling Constant in Principal Axis System
 ---------------------------------------------------------------------------------

       Atom             a.u.   MegaHertz   Gauss  10(-4) cm-1        Axes


 ---------------------------------------------------------------------------------

 No NMR shielding tensors so no spin-rotation constants.
 Leave Link  601 at Thu Nov  2 13:05:02 2023, MaxMem=   134217728 cpu:               0.2 elap:               0.2
 FitSet:  NAtFit=    26 NAtPot=    26 NAtFrz=     0 MDM=    30 TotChg=   0.00000
 Merz-Kollman atomic radii used.
 Atom Element Radius
    1     6    1.50
    2     6    1.50
    3     6    1.50
    4     6    1.50
    5     6    1.50
    6     6    1.50
    7     6    1.50
    8     6    1.50
    9     1    1.20
   10     1    1.20
   11     1    1.20
   12     1    1.20
   13     1    1.20
   14     1    1.20
   15     1    1.20
   16     1    1.20
   17     1    1.20
   18     1    1.20
   19     1    1.20
   20     1    1.20
   21     1    1.20
   22     1    1.20
   23     1    1.20
   24     1    1.20
   25     1    1.20
   26     1    1.20
 Generate VDW surfaces: Layer= 4 Dens= 6 Start= 1.400 Inc= 0.200

 **********************************************************************

            Electrostatic Properties Using The SCF Density.

 **********************************************************************

       Atomic Center    1 is at  -1.816773  1.268959  0.179486
       Atomic Center    2 is at  -1.539757  0.003665 -0.640490
       Atomic Center    3 is at  -1.876818 -1.221041  0.216495
       Atomic Center    4 is at  -0.066787 -0.012179 -1.110888
       Atomic Center    5 is at   1.026761  0.007016 -0.004328
       Atomic Center    6 is at   0.519906 -0.683983  1.274873
       Atomic Center    7 is at   2.246688 -0.782501 -0.525601
       Atomic Center    8 is at   1.485706  1.430298  0.340853
       Atomic Center    9 is at  -1.586770  2.167901 -0.401653
       Atomic Center   10 is at  -2.866116  1.322406  0.486866
       Atomic Center   11 is at  -1.195409  1.290102  1.081456
       Atomic Center   12 is at  -2.217653  0.017734 -1.500528
       Atomic Center   13 is at  -1.693758 -2.151975 -0.331516
       Atomic Center   14 is at  -1.259220 -1.239300  1.121673
       Atomic Center   15 is at  -2.921558 -1.220118  0.535958
       Atomic Center   16 is at   0.104754 -0.911759 -1.718407
       Atomic Center   17 is at   0.097857  0.833886 -1.793191
       Atomic Center   18 is at   1.273660 -0.683288  2.067408
       Atomic Center   19 is at   0.260247 -1.731917  1.078031
       Atomic Center   20 is at  -0.377086 -0.189160  1.663238
       Atomic Center   21 is at   3.051604 -0.801299  0.217251
       Atomic Center   22 is at   2.646971 -0.333551 -1.441585
       Atomic Center   23 is at   1.979971 -1.820409 -0.753470
       Atomic Center   24 is at   2.255834  1.417111  1.121762
       Atomic Center   25 is at   0.659110  2.041610  0.718002
       Atomic Center   26 is at   1.914011  1.930626 -0.533706
      ESP Fit Center   27 is at  -2.512742  1.670776  2.119633
      ESP Fit Center   28 is at  -2.512742  0.867141  2.119633
      ESP Fit Center   29 is at  -2.519866  2.200003  1.925573
      ESP Fit Center   30 is at  -2.519866  0.337914  1.925573
      ESP Fit Center   31 is at  -2.136055  0.146799  1.925573
      ESP Fit Center   32 is at  -2.028100  2.738768  1.664411
      ESP Fit Center   33 is at  -2.433633  2.619693  1.664411
      ESP Fit Center   34 is at  -1.606306  3.002314  1.346184
      ESP Fit Center   35 is at  -2.027241  3.002314  1.346184
      ESP Fit Center   36 is at  -2.435944  2.901577  1.346184
      ESP Fit Center   37 is at  -0.907992  2.983102  0.983122
      ESP Fit Center   38 is at  -1.297729  3.138387  0.983122
      ESP Fit Center   39 is at  -1.711736  3.206260  0.983122
      ESP Fit Center   40 is at  -2.130654  3.183547  0.983122
      ESP Fit Center   41 is at  -2.534896  3.071310  0.983122
      ESP Fit Center   42 is at  -2.723831  3.118121  0.589176
      ESP Fit Center   43 is at  -2.983471  3.015045  0.179486
      ESP Fit Center   44 is at  -3.225311  2.603197 -0.624149
      ESP Fit Center   45 is at  -3.362856  2.080405 -0.987211
      ESP Fit Center   46 is at  -3.065971  2.071769 -1.305438
      ESP Fit Center   47 is at  -3.241548  1.687310 -1.305438
      ESP Fit Center   48 is at  -2.808720  1.883146 -1.566600
      ESP Fit Center   49 is at  -2.512742  1.670776 -1.760661
      ESP Fit Center   50 is at  -2.572787 -0.819223  2.156642
      ESP Fit Center   51 is at  -2.572787 -1.622858  2.156642
      ESP Fit Center   52 is at  -2.196100 -0.098881  1.962581
      ESP Fit Center   53 is at  -2.579911 -0.289996  1.962581
      ESP Fit Center   54 is at  -2.579911 -2.152086  1.962581
      ESP Fit Center   55 is at  -2.493678 -2.571775  1.701419
      ESP Fit Center   56 is at  -2.088145 -2.690851  1.701419
      ESP Fit Center   57 is at  -2.495989 -2.853660  1.383192
      ESP Fit Center   58 is at  -2.087286 -2.954396  1.383192
      ESP Fit Center   59 is at  -1.666351 -2.954396  1.383192
      ESP Fit Center   60 is at  -2.594941 -3.023392  1.020130
      ESP Fit Center   61 is at  -2.190699 -3.135629  1.020130
      ESP Fit Center   62 is at  -1.771781 -3.158342  1.020130
      ESP Fit Center   63 is at  -0.968037 -2.935184  1.020130
      ESP Fit Center   64 is at  -2.783876 -3.070203  0.626185
      ESP Fit Center   65 is at  -3.422901 -2.032488 -0.950203
      ESP Fit Center   66 is at  -3.361743 -1.221041 -1.268429
      ESP Fit Center   67 is at  -3.301593 -1.639392 -1.268429
      ESP Fit Center   68 is at  -3.126016 -2.023852 -1.268429
      ESP Fit Center   69 is at  -2.868765 -1.835228 -1.529591
      ESP Fit Center   70 is at  -2.572787 -1.622858 -1.723652
      ESP Fit Center   71 is at   1.418138 -0.012179 -2.595812
      ESP Fit Center   72 is at   1.099911 -0.012179 -2.856974
      ESP Fit Center   73 is at  -1.213619  0.202201 -2.856974
      ESP Fit Center   74 is at  -1.213619 -0.226560 -2.856974
      ESP Fit Center   75 is at  -0.870422 -0.012179 -3.051035
      ESP Fit Center   76 is at  -0.476476 -0.012179 -3.170537
      ESP Fit Center   77 is at   0.110216 -0.683983  3.334522
      ESP Fit Center   78 is at  -0.176063 -1.085801  3.215020
      ESP Fit Center   79 is at   0.118088 -1.379952  3.215020
      ESP Fit Center   80 is at  -0.472041 -1.298170  3.020959
      ESP Fit Center   81 is at  -0.183187 -1.615028  3.020959
      ESP Fit Center   82 is at   0.200624 -1.806143  3.020959
      ESP Fit Center   83 is at   0.731232  0.785827  2.759797
      ESP Fit Center   84 is at  -0.729292 -1.486794  2.759797
      ESP Fit Center   85 is at  -0.452513 -1.806214  2.759797
      ESP Fit Center   86 is at  -0.096954 -2.034718  2.759797
      ESP Fit Center   87 is at   0.308579 -2.153793  2.759797
      ESP Fit Center   88 is at   0.731232 -2.153793  2.759797
      ESP Fit Center   89 is at   0.730373  1.049372  2.441570
      ESP Fit Center   90 is at   1.139076 -2.316602  2.441570
      ESP Fit Center   91 is at   2.004830 -2.168907  1.274873
      ESP Fit Center   92 is at   2.035361 -2.252311  0.959324
      ESP Fit Center   93 is at   2.458015 -2.252311  0.959324
      ESP Fit Center   94 is at   3.155469 -2.496644  0.278035
      ESP Fit Center   95 is at   3.992774  0.384196 -0.525601
      ESP Fit Center   96 is at   3.731612  0.702423 -0.525601
      ESP Fit Center   97 is at   3.413386  0.963585 -0.525601
      ESP Fit Center   98 is at   3.731612 -2.267425 -0.525601
      ESP Fit Center   99 is at   4.306337 -0.782501 -0.935290
      ESP Fit Center  100 is at   4.264176 -0.367897 -0.935290
      ESP Fit Center  101 is at   3.665718 -2.275320 -0.935290
      ESP Fit Center  102 is at   3.937173 -1.959113 -0.935290
      ESP Fit Center  103 is at   4.139419 -1.594736 -0.935290
      ESP Fit Center  104 is at   4.264176 -1.197105 -0.935290
      ESP Fit Center  105 is at   3.502713 -2.261208 -1.329236
      ESP Fit Center  106 is at   3.791226 -1.956628 -1.329236
      ESP Fit Center  107 is at   4.007518 -1.597148 -1.329236
      ESP Fit Center  108 is at   4.141476 -1.199575 -1.329236
      ESP Fit Center  109 is at   3.553652 -1.940370 -1.692298
      ESP Fit Center  110 is at   3.792771 -1.593948 -1.692298
      ESP Fit Center  111 is at   3.219107 -1.904732 -2.010525
      ESP Fit Center  112 is at   2.766730 -1.826886 -2.271687
      ESP Fit Center  113 is at   1.844870 -1.478470 -2.465748
      ESP Fit Center  114 is at   1.076016  1.430298  2.400502
      ESP Fit Center  115 is at   1.697032  2.900107  1.825777
      ESP Fit Center  116 is at   2.104876  3.062917  1.507550
      ESP Fit Center  117 is at   1.696173  3.163653  1.507550
      ESP Fit Center  118 is at   2.394487  3.144441  1.144488
      ESP Fit Center  119 is at   2.004750  3.299726  1.144488
      ESP Fit Center  120 is at   2.904736  2.923116  0.750543
      ESP Fit Center  121 is at   2.575186  3.178207  0.750543
      ESP Fit Center  122 is at   2.201033  3.361738  0.750543
      ESP Fit Center  123 is at   1.797594  3.466195  0.750543
      ESP Fit Center  124 is at   3.231792  2.596995  0.340853
      ESP Fit Center  125 is at   2.970630  2.915222  0.340853
      ESP Fit Center  126 is at   2.652403  3.176384  0.340853
      ESP Fit Center  127 is at   2.289341  3.370445  0.340853
      ESP Fit Center  128 is at   1.895395  3.489947  0.340853
      ESP Fit Center  129 is at   1.485706  3.530298  0.340853
      ESP Fit Center  130 is at   3.545355  1.430298 -0.068837
      ESP Fit Center  131 is at   1.381386  3.487303 -0.068837
      ESP Fit Center  132 is at   3.503194  1.015693 -0.068837
      ESP Fit Center  133 is at   0.767583  3.232649 -0.462782
      ESP Fit Center  134 is at   3.380493  1.013223 -0.462782
      ESP Fit Center  135 is at   0.493816  2.867298 -0.825845
      ESP Fit Center  136 is at   0.178741  2.588167 -0.825845
      ESP Fit Center  137 is at  -1.057259  3.231301  0.786287
      ESP Fit Center  138 is at  -1.477160  3.350773  0.786287
      ESP Fit Center  139 is at  -1.911865  3.310492  0.786287
      ESP Fit Center  140 is at  -0.679640  3.305405  0.438347
      ESP Fit Center  141 is at  -1.055227  3.522250  0.438347
      ESP Fit Center  142 is at  -1.478043  3.618755  0.438347
      ESP Fit Center  143 is at  -1.910520  3.586346  0.438347
      ESP Fit Center  144 is at  -2.314231  3.427901  0.438347
      ESP Fit Center  145 is at  -0.439308  3.315362  0.033163
      ESP Fit Center  146 is at  -0.775392  3.573248  0.033163
      ESP Fit Center  147 is at  -1.166770  3.735362  0.033163
      ESP Fit Center  148 is at  -1.586770  3.790656  0.033163
      ESP Fit Center  149 is at  -2.006770  3.735362  0.033163
      ESP Fit Center  150 is at  -2.398147  3.573248  0.033163
      ESP Fit Center  151 is at  -2.734231  3.315362  0.033163
      ESP Fit Center  152 is at  -0.362102  3.317940 -0.401653
      ESP Fit Center  153 is at  -0.686581  3.586372 -0.401653
      ESP Fit Center  154 is at  -1.067621  3.765676 -0.401653
      ESP Fit Center  155 is at  -1.481281  3.844586 -0.401653
      ESP Fit Center  156 is at  -1.901570  3.818144 -0.401653
      ESP Fit Center  157 is at  -2.302079  3.688011 -0.401653
      ESP Fit Center  158 is at  -2.657642  3.462363 -0.401653
      ESP Fit Center  159 is at  -2.945918  3.155380 -0.401653
      ESP Fit Center  160 is at  -3.148794  2.786350 -0.401653
      ESP Fit Center  161 is at  -0.019308  2.587901 -0.836469
      ESP Fit Center  162 is at  -0.181422  2.979279 -0.836469
      ESP Fit Center  163 is at  -0.439308  3.315362 -0.836469
      ESP Fit Center  164 is at  -0.775392  3.573248 -0.836469
      ESP Fit Center  165 is at  -1.166770  3.735362 -0.836469
      ESP Fit Center  166 is at  -1.586770  3.790656 -0.836469
      ESP Fit Center  167 is at  -2.006770  3.735362 -0.836469
      ESP Fit Center  168 is at  -2.398147  3.573248 -0.836469
      ESP Fit Center  169 is at  -2.734231  3.315362 -0.836469
      ESP Fit Center  170 is at  -2.992117  2.979279 -0.836469
      ESP Fit Center  171 is at  -3.154231  2.587901 -0.836469
      ESP Fit Center  172 is at  -0.196485  2.596747 -1.241653
      ESP Fit Center  173 is at  -0.384656  2.987488 -1.241653
      ESP Fit Center  174 is at  -0.679640  3.305405 -1.241653
      ESP Fit Center  175 is at  -1.055227  3.522250 -1.241653
      ESP Fit Center  176 is at  -1.478043  3.618755 -1.241653
      ESP Fit Center  177 is at  -1.910520  3.586346 -1.241653
      ESP Fit Center  178 is at  -2.314231  3.427901 -1.241653
      ESP Fit Center  179 is at  -2.653303  3.157500 -1.241653
      ESP Fit Center  180 is at  -2.897610  2.799168 -1.241653
      ESP Fit Center  181 is at  -3.025442  2.384746 -1.241653
      ESP Fit Center  182 is at  -0.479049  2.597034 -1.589592
      ESP Fit Center  183 is at  -0.708872  2.968211 -1.589592
      ESP Fit Center  184 is at  -1.057259  3.231301 -1.589592
      ESP Fit Center  185 is at  -1.477160  3.350773 -1.589592
      ESP Fit Center  186 is at  -1.911865  3.310492 -1.589592
      ESP Fit Center  187 is at  -2.302663  3.115897 -1.589592
      ESP Fit Center  188 is at  -2.596776  2.793271 -1.589592
      ESP Fit Center  189 is at  -2.754482  2.386184 -1.589592
      ESP Fit Center  190 is at  -2.754482  1.949618 -1.589592
      ESP Fit Center  191 is at  -0.859308  2.587901 -1.856575
      ESP Fit Center  192 is at  -1.166770  2.895362 -1.856575
      ESP Fit Center  193 is at  -1.586770  3.007901 -1.856575
      ESP Fit Center  194 is at  -2.006770  2.895362 -1.856575
      ESP Fit Center  195 is at  -2.314231  2.587901 -1.856575
      ESP Fit Center  196 is at  -2.426770  2.167901 -1.856575
      ESP Fit Center  197 is at  -2.314231  1.747901 -1.856575
      ESP Fit Center  198 is at  -1.151954  2.167901 -2.024408
      ESP Fit Center  199 is at  -1.369362  2.544463 -2.024408
      ESP Fit Center  200 is at  -1.804178  2.544463 -2.024408
      ESP Fit Center  201 is at  -2.021586  2.167901 -2.024408
      ESP Fit Center  202 is at  -1.804178  1.791339 -2.024408
      ESP Fit Center  203 is at  -1.369362  1.791339 -2.024408
      ESP Fit Center  204 is at  -1.586770  2.167901 -2.081653
      ESP Fit Center  205 is at  -2.866116  1.322406  2.166866
      ESP Fit Center  206 is at  -2.648708  1.698967  2.109621
      ESP Fit Center  207 is at  -3.083524  1.698967  2.109621
      ESP Fit Center  208 is at  -3.300932  1.322406  2.109621
      ESP Fit Center  209 is at  -3.083524  0.945844  2.109621
      ESP Fit Center  210 is at  -2.648708  0.945844  2.109621
      ESP Fit Center  211 is at  -2.866116  2.162406  1.941789
      ESP Fit Center  212 is at  -3.286116  2.049867  1.941789
      ESP Fit Center  213 is at  -3.593577  1.742406  1.941789
      ESP Fit Center  214 is at  -3.706116  1.322406  1.941789
      ESP Fit Center  215 is at  -3.593577  0.902406  1.941789
      ESP Fit Center  216 is at  -3.286116  0.594944  1.941789
      ESP Fit Center  217 is at  -2.866116  0.482406  1.941789
      ESP Fit Center  218 is at  -2.756506  2.505278  1.674805
      ESP Fit Center  219 is at  -3.191211  2.464996  1.674805
      ESP Fit Center  220 is at  -3.582009  2.270402  1.674805
      ESP Fit Center  221 is at  -3.876122  1.947775  1.674805
      ESP Fit Center  222 is at  -4.033828  1.540689  1.674805
      ESP Fit Center  223 is at  -4.033828  1.104122  1.674805
      ESP Fit Center  224 is at  -3.876122  0.697036  1.674805
      ESP Fit Center  225 is at  -3.582009  0.374410  1.674805
      ESP Fit Center  226 is at  -3.191211  0.179815  1.674805
      ESP Fit Center  227 is at  -2.757389  2.773260  1.326866
      ESP Fit Center  228 is at  -3.189866  2.740850  1.326866
      ESP Fit Center  229 is at  -3.593577  2.582406  1.326866
      ESP Fit Center  230 is at  -3.932649  2.312004  1.326866
      ESP Fit Center  231 is at  -4.176956  1.953673  1.326866
      ESP Fit Center  232 is at  -4.304788  1.539251  1.326866
      ESP Fit Center  233 is at  -4.304788  1.105561  1.326866
      ESP Fit Center  234 is at  -4.176956  0.691138  1.326866
      ESP Fit Center  235 is at  -3.932649  0.332807  1.326866
      ESP Fit Center  236 is at  -2.866116  2.945161  0.921682
      ESP Fit Center  237 is at  -3.286116  2.889867  0.921682
      ESP Fit Center  238 is at  -3.677493  2.727753  0.921682
      ESP Fit Center  239 is at  -4.013577  2.469867  0.921682
      ESP Fit Center  240 is at  -4.271463  2.133783  0.921682
      ESP Fit Center  241 is at  -4.433577  1.742406  0.921682
      ESP Fit Center  242 is at  -4.488871  1.322406  0.921682
      ESP Fit Center  243 is at  -4.433577  0.902406  0.921682
      ESP Fit Center  244 is at  -4.271463  0.511028  0.921682
      ESP Fit Center  245 is at  -4.013577  0.174944  0.921682
      ESP Fit Center  246 is at  -3.180916  2.972648  0.486866
      ESP Fit Center  247 is at  -3.581425  2.842515  0.486866
      ESP Fit Center  248 is at  -3.936988  2.616868  0.486866
      ESP Fit Center  249 is at  -4.225264  2.309885  0.486866
      ESP Fit Center  250 is at  -4.428140  1.940855  0.486866
      ESP Fit Center  251 is at  -4.532868  1.532966  0.486866
      ESP Fit Center  252 is at  -4.532868  1.111846  0.486866
      ESP Fit Center  253 is at  -4.428140  0.703956  0.486866
      ESP Fit Center  254 is at  -4.225264  0.334927  0.486866
      ESP Fit Center  255 is at  -3.286116  2.889867  0.052050
      ESP Fit Center  256 is at  -3.677493  2.727753  0.052050
      ESP Fit Center  257 is at  -4.013577  2.469867  0.052050
      ESP Fit Center  258 is at  -4.271463  2.133783  0.052050
      ESP Fit Center  259 is at  -4.433577  1.742406  0.052050
      ESP Fit Center  260 is at  -4.488871  1.322406  0.052050
      ESP Fit Center  261 is at  -4.433577  0.902406  0.052050
      ESP Fit Center  262 is at  -4.271463  0.511028  0.052050
      ESP Fit Center  263 is at  -4.013577  0.174944  0.052050
      ESP Fit Center  264 is at  -3.593577  2.582406 -0.353134
      ESP Fit Center  265 is at  -3.932649  2.312004 -0.353134
      ESP Fit Center  266 is at  -4.176956  1.953673 -0.353134
      ESP Fit Center  267 is at  -4.304788  1.539251 -0.353134
      ESP Fit Center  268 is at  -4.304788  1.105561 -0.353134
      ESP Fit Center  269 is at  -4.176956  0.691138 -0.353134
      ESP Fit Center  270 is at  -3.932649  0.332807 -0.353134
      ESP Fit Center  271 is at  -3.582009  2.270402 -0.701073
      ESP Fit Center  272 is at  -3.876122  1.947775 -0.701073
      ESP Fit Center  273 is at  -4.033828  1.540689 -0.701073
      ESP Fit Center  274 is at  -4.033828  1.104122 -0.701073
      ESP Fit Center  275 is at  -3.876122  0.697036 -0.701073
      ESP Fit Center  276 is at  -3.593577  1.742406 -0.968057
      ESP Fit Center  277 is at  -3.706116  1.322406 -0.968057
      ESP Fit Center  278 is at  -3.593577  0.902406 -0.968057
      ESP Fit Center  279 is at  -1.195409  1.290102  2.761456
      ESP Fit Center  280 is at  -0.760593  1.290102  2.704211
      ESP Fit Center  281 is at  -0.978001  1.666663  2.704211
      ESP Fit Center  282 is at  -1.412817  1.666663  2.704211
      ESP Fit Center  283 is at  -1.630225  1.290102  2.704211
      ESP Fit Center  284 is at  -1.412817  0.913540  2.704211
      ESP Fit Center  285 is at  -0.355409  1.290102  2.536379
      ESP Fit Center  286 is at  -0.467948  1.710102  2.536379
      ESP Fit Center  287 is at  -0.775409  2.017563  2.536379
      ESP Fit Center  288 is at  -1.195409  2.130102  2.536379
      ESP Fit Center  289 is at  -1.615409  2.017563  2.536379
      ESP Fit Center  290 is at  -1.922870  1.710102  2.536379
      ESP Fit Center  291 is at  -2.035409  1.290102  2.536379
      ESP Fit Center  292 is at  -1.922870  0.870102  2.536379
      ESP Fit Center  293 is at  -1.615409  0.562640  2.536379
      ESP Fit Center  294 is at  -0.087688  1.719235  2.269395
      ESP Fit Center  295 is at  -0.317511  2.090411  2.269395
      ESP Fit Center  296 is at  -0.665899  2.353501  2.269395
      ESP Fit Center  297 is at  -1.085800  2.472974  2.269395
      ESP Fit Center  298 is at  -1.520504  2.432692  2.269395
      ESP Fit Center  299 is at  -1.911302  2.238098  2.269395
      ESP Fit Center  300 is at  -2.205415  1.915471  2.269395
      ESP Fit Center  301 is at  -2.363121  1.508385  2.269395
      ESP Fit Center  302 is at  -2.363121  1.071818  2.269395
      ESP Fit Center  303 is at  -2.205415  0.664732  2.269395
      ESP Fit Center  304 is at  -1.911302  0.342106  2.269395
      ESP Fit Center  305 is at  -0.663866  2.644451  1.921456
      ESP Fit Center  306 is at  -1.086682  2.740956  1.921456
      ESP Fit Center  307 is at  -1.519160  2.708546  1.921456
      ESP Fit Center  308 is at  -1.922870  2.550102  1.921456
      ESP Fit Center  309 is at  -0.775409  2.857563  1.516272
      ESP Fit Center  310 is at  -1.195409  2.912857  1.516272
      ESP Fit Center  311 is at  -3.656326  0.234579 -0.660528
      ESP Fit Center  312 is at  -3.656326 -0.199111 -0.660528
      ESP Fit Center  313 is at  -3.623001  0.829112 -1.065712
      ESP Fit Center  314 is at  -3.785115  0.437734 -1.065712
      ESP Fit Center  315 is at  -3.840409  0.017734 -1.065712
      ESP Fit Center  316 is at  -3.785115 -0.402266 -1.065712
      ESP Fit Center  317 is at  -3.623001 -0.793643 -1.065712
      ESP Fit Center  318 is at  -3.288526  1.312196 -1.500528
      ESP Fit Center  319 is at  -3.576802  1.005213 -1.500528
      ESP Fit Center  320 is at  -3.779678  0.636183 -1.500528
      ESP Fit Center  321 is at  -3.884406  0.228294 -1.500528
      ESP Fit Center  322 is at  -3.884406 -0.192826 -1.500528
      ESP Fit Center  323 is at  -3.779678 -0.600715 -1.500528
      ESP Fit Center  324 is at  -3.576802 -0.969745 -1.500528
      ESP Fit Center  325 is at  -3.288526 -1.276728 -1.500528
      ESP Fit Center  326 is at  -2.217653  1.640490 -1.935344
      ESP Fit Center  327 is at  -2.637653  1.585196 -1.935344
      ESP Fit Center  328 is at  -3.029031  1.423082 -1.935344
      ESP Fit Center  329 is at  -3.365115  1.165196 -1.935344
      ESP Fit Center  330 is at  -3.623001  0.829112 -1.935344
      ESP Fit Center  331 is at  -3.785115  0.437734 -1.935344
      ESP Fit Center  332 is at  -3.840409  0.017734 -1.935344
      ESP Fit Center  333 is at  -3.785115 -0.402266 -1.935344
      ESP Fit Center  334 is at  -3.623001 -0.793643 -1.935344
      ESP Fit Center  335 is at  -3.365115 -1.129727 -1.935344
      ESP Fit Center  336 is at  -3.029031 -1.387613 -1.935344
      ESP Fit Center  337 is at  -2.637653 -1.549727 -1.935344
      ESP Fit Center  338 is at  -2.217653 -1.605021 -1.935344
      ESP Fit Center  339 is at  -1.686110  1.372084 -2.340528
      ESP Fit Center  340 is at  -2.108927  1.468589 -2.340528
      ESP Fit Center  341 is at  -2.541404  1.436179 -2.340528
      ESP Fit Center  342 is at  -2.945115  1.277734 -2.340528
      ESP Fit Center  343 is at  -3.284187  1.007333 -2.340528
      ESP Fit Center  344 is at  -3.528493  0.649002 -2.340528
      ESP Fit Center  345 is at  -3.656326  0.234579 -2.340528
      ESP Fit Center  346 is at  -3.656326 -0.199111 -2.340528
      ESP Fit Center  347 is at  -3.528493 -0.613533 -2.340528
      ESP Fit Center  348 is at  -3.284187 -0.971865 -2.340528
      ESP Fit Center  349 is at  -2.945115 -1.242266 -2.340528
      ESP Fit Center  350 is at  -2.541404 -1.400711 -2.340528
      ESP Fit Center  351 is at  -2.108927 -1.433120 -2.340528
      ESP Fit Center  352 is at  -1.686110 -1.336615 -2.340528
      ESP Fit Center  353 is at  -1.339756  0.818044 -2.688467
      ESP Fit Center  354 is at  -1.688143  1.081134 -2.688467
      ESP Fit Center  355 is at  -2.108044  1.200606 -2.688467
      ESP Fit Center  356 is at  -2.542748  1.160325 -2.688467
      ESP Fit Center  357 is at  -2.933547  0.965730 -2.688467
      ESP Fit Center  358 is at  -3.227660  0.643104 -2.688467
      ESP Fit Center  359 is at  -3.385366  0.236018 -2.688467
      ESP Fit Center  360 is at  -3.385366 -0.200549 -2.688467
      ESP Fit Center  361 is at  -3.227660 -0.607635 -2.688467
      ESP Fit Center  362 is at  -2.933547 -0.930262 -2.688467
      ESP Fit Center  363 is at  -2.542748 -1.124856 -2.688467
      ESP Fit Center  364 is at  -2.108044 -1.165138 -2.688467
      ESP Fit Center  365 is at  -1.688143 -1.045666 -2.688467
      ESP Fit Center  366 is at  -1.339756 -0.782575 -2.688467
      ESP Fit Center  367 is at  -1.377653  0.017734 -2.955450
      ESP Fit Center  368 is at  -1.490192  0.437734 -2.955450
      ESP Fit Center  369 is at  -1.797653  0.745196 -2.955450
      ESP Fit Center  370 is at  -2.217653  0.857734 -2.955450
      ESP Fit Center  371 is at  -2.637653  0.745196 -2.955450
      ESP Fit Center  372 is at  -2.945115  0.437734 -2.955450
      ESP Fit Center  373 is at  -3.057653  0.017734 -2.955450
      ESP Fit Center  374 is at  -2.945115 -0.402266 -2.955450
      ESP Fit Center  375 is at  -2.637653 -0.709727 -2.955450
      ESP Fit Center  376 is at  -2.217653 -0.822266 -2.955450
      ESP Fit Center  377 is at  -1.797653 -0.709727 -2.955450
      ESP Fit Center  378 is at  -1.490192 -0.402266 -2.955450
      ESP Fit Center  379 is at  -1.782837  0.017734 -3.123283
      ESP Fit Center  380 is at  -2.000245  0.394296 -3.123283
      ESP Fit Center  381 is at  -2.435061  0.394296 -3.123283
      ESP Fit Center  382 is at  -2.652469  0.017734 -3.123283
      ESP Fit Center  383 is at  -2.435061 -0.358827 -3.123283
      ESP Fit Center  384 is at  -2.000245 -0.358827 -3.123283
      ESP Fit Center  385 is at  -2.217653  0.017734 -3.180528
      ESP Fit Center  386 is at  -2.018853 -3.294565  0.856423
      ESP Fit Center  387 is at  -1.584149 -3.334847  0.856423
      ESP Fit Center  388 is at  -1.164248 -3.215375  0.856423
      ESP Fit Center  389 is at  -2.760292 -3.141574  0.508484
      ESP Fit Center  390 is at  -2.421220 -3.411975  0.508484
      ESP Fit Center  391 is at  -2.017509 -3.570420  0.508484
      ESP Fit Center  392 is at  -1.585032 -3.602829  0.508484
      ESP Fit Center  393 is at  -1.162215 -3.506324  0.508484
      ESP Fit Center  394 is at  -0.786629 -3.289479  0.508484
      ESP Fit Center  395 is at  -3.099106 -2.963352  0.103300
      ESP Fit Center  396 is at  -2.841220 -3.299436  0.103300
      ESP Fit Center  397 is at  -2.505136 -3.557322  0.103300
      ESP Fit Center  398 is at  -2.113758 -3.719436  0.103300
      ESP Fit Center  399 is at  -1.693758 -3.774730  0.103300
      ESP Fit Center  400 is at  -1.273758 -3.719436  0.103300
      ESP Fit Center  401 is at  -0.882381 -3.557322  0.103300
      ESP Fit Center  402 is at  -0.546297 -3.299436  0.103300
      ESP Fit Center  403 is at  -3.255783 -2.770424 -0.331516
[...]
 5104 Fit       0.001470
 5105 Fit       0.002132
 5106 Fit       0.002250
 5107 Fit       0.002287
 5108 Fit       0.002241
 5109 Fit       0.002120
 5110 Fit       0.001936
 5111 Fit       0.001708
 5112 Fit       0.001469
 5113 Fit       0.001265
 5114 Fit       0.000813
 5115 Fit       0.001405
 5116 Fit       0.001738
 5117 Fit       0.001889
 5118 Fit       0.001897
 5119 Fit       0.001785
 5120 Fit       0.001580
 5121 Fit       0.001318
 5122 Fit       0.001024
 5123 Fit       0.000675
 5124 Fit       0.000203
 5125 Fit      -0.000880
 5126 Fit      -0.000038
 5127 Fit       0.000565
 5128 Fit       0.001147
 5129 Fit       0.001437
 5130 Fit       0.001464
 5131 Fit       0.001283
 5132 Fit       0.000955
 5133 Fit       0.000511
 5134 Fit      -0.000039
 5135 Fit      -0.000575
 5136 Fit      -0.000870
 5137 Fit      -0.000749
 5138 Fit      -0.000188
 5139 Fit       0.000453
 5140 Fit       0.000939
 5141 Fit       0.000893
 5142 Fit       0.000433
 5143 Fit      -0.000103
 5144 Fit      -0.000137
 5145 Fit       0.000416
 5146 Fit      -0.000932
 5147 Fit      -0.000369
 5148 Fit      -0.000590
 5149 Fit      -0.001120
 5150 Fit      -0.001314
 5151 Fit      -0.000762
 5152 Fit       0.000189
 5153 Fit       0.000116
 5154 Fit      -0.000292
 5155 Fit      -0.000846
 5156 Fit      -0.001246
 5157 Fit      -0.000635
 5158 Fit      -0.000096
 5159 Fit       0.000706
 5160 Fit       0.000711
 5161 Fit       0.000453
 5162 Fit      -0.000031
 5163 Fit      -0.000625
 5164 Fit      -0.001182
 5165 Fit      -0.000568
 5166 Fit       0.000006
 5167 Fit       0.000455
 5168 Fit       0.001156
 5169 Fit       0.001220
 5170 Fit       0.001067
 5171 Fit       0.000687
 5172 Fit       0.000103
 5173 Fit      -0.000585
 5174 Fit      -0.001295
 5175 Fit      -0.000674
 5176 Fit      -0.000067
 5177 Fit       0.000473
 5178 Fit       0.000896
 5179 Fit       0.001527
 5180 Fit       0.001655
 5181 Fit       0.001596
 5182 Fit       0.001332
 5183 Fit       0.000834
 5184 Fit       0.000095
 5185 Fit      -0.000777
 5186 Fit      -0.001573
 5187 Fit      -0.000959
 5188 Fit      -0.000332
 5189 Fit       0.000268
 5190 Fit       0.000803
 5191 Fit       0.001234
 5192 Fit       0.001820
 5193 Fit       0.002019
 5194 Fit       0.002067
 5195 Fit       0.001955
 5196 Fit       0.001656
 5197 Fit      -0.001288
 5198 Fit      -0.000686
 5199 Fit      -0.000079
 5200 Fit       0.000505
 5201 Fit       0.001036
 5202 Fit       0.001484
 5203 Fit       0.002049
 5204 Fit       0.002341
 5205 Fit       0.002497
 5206 Fit       0.002536
 5207 Fit      -0.001284
 5208 Fit      -0.000692
 5209 Fit      -0.000078
 5210 Fit       0.000532
 5211 Fit       0.001111
 5212 Fit       0.001628
 5213 Fit       0.002256
 5214 Fit       0.002669
 5215 Fit       0.002942
 5216 Fit      -0.001339
 5217 Fit      -0.000781
 5218 Fit      -0.000177
 5219 Fit       0.000457
 5220 Fit       0.001099
 5221 Fit       0.001716
 5222 Fit      -0.001555
 5223 Fit      -0.001058
 5224 Fit      -0.000469
 5225 Fit       0.000209
 5226 Fit       0.000972
 5227 Fit      -0.001601
 5228 Fit      -0.001076
 5229 Fit      -0.001425
 5230 Fit      -0.001392
 5231 Fit      -0.001460
 5232 Fit      -0.001676
 5233 Fit      -0.001147
 5234 Fit      -0.000971
 5235 Fit      -0.000857
 5236 Fit      -0.000888
 5237 Fit      -0.001085
 5238 Fit      -0.001425
 5239 Fit      -0.001176
 5240 Fit      -0.000810
 5241 Fit      -0.000491
 5242 Fit      -0.000320
 5243 Fit      -0.000324
 5244 Fit      -0.000498
 5245 Fit      -0.000820
 5246 Fit      -0.001253
 5247 Fit      -0.000793
 5248 Fit      -0.000229
 5249 Fit       0.000109
 5250 Fit       0.000231
 5251 Fit       0.000157
 5252 Fit      -0.000090
 5253 Fit      -0.000482
 5254 Fit      -0.000982
 5255 Fit      -0.001528
 5256 Fit      -0.000070
 5257 Fit       0.000443
 5258 Fit       0.000691
 5259 Fit       0.000723
 5260 Fit       0.000571
 5261 Fit       0.000260
 5262 Fit      -0.000188
 5263 Fit      -0.000740
 5264 Fit      -0.001353
 5265 Fit       0.000566
 5266 Fit       0.001002
 5267 Fit       0.001185
 5268 Fit       0.001169
 5269 Fit       0.000983
 5270 Fit       0.000647
 5271 Fit       0.000177
 5272 Fit      -0.000411
 5273 Fit      -0.001096
 5274 Fit       0.001390
 5275 Fit       0.001603
 5276 Fit       0.001623
 5277 Fit       0.001476
 5278 Fit       0.001179
 5279 Fit       0.000742
 5280 Fit       0.000165
 5281 Fit      -0.000566
 5282 Fit       0.001989
 5283 Fit       0.002054
 5284 Fit       0.001979
 5285 Fit       0.001769
 5286 Fit       0.001431
 5287 Fit       0.000963
 5288 Fit       0.002481
 5289 Fit       0.002441
 5290 Fit       0.002326
 5291 Fit       0.002137
 5292 Fit       0.002937
 5293 Fit       0.002872
 5294 Fit       0.002830
 5295 Fit       0.003367
 5296 Fit      -0.000111
 5297 Fit      -0.000787
 5298 Fit      -0.000173
 5299 Fit       0.000529
 5300 Fit       0.000568
 5301 Fit      -0.000098
 5302 Fit      -0.000768
 5303 Fit      -0.000959
 5304 Fit      -0.000288
 5305 Fit       0.000510
 5306 Fit       0.001151
 5307 Fit       0.001398
 5308 Fit       0.001209
 5309 Fit       0.000655
 5310 Fit      -0.000127
 5311 Fit      -0.000903
 5312 Fit      -0.000467
 5313 Fit       0.000346
 5314 Fit       0.001160
 5315 Fit       0.001772
 5316 Fit       0.002065
 5317 Fit       0.002048
 5318 Fit       0.001787
 5319 Fit       0.001307
 5320 Fit       0.000623
 5321 Fit      -0.000189
 5322 Fit      -0.000991
 5323 Fit      -0.000606
 5324 Fit       0.000285
 5325 Fit       0.001244
 5326 Fit       0.002058
 5327 Fit       0.002576
 5328 Fit       0.002754
 5329 Fit       0.002667
 5330 Fit       0.002435
 5331 Fit       0.002096
 5332 Fit       0.001592
 5333 Fit       0.000881
 5334 Fit       0.000026
 5335 Fit      -0.000845
 5336 Fit      -0.000721
 5337 Fit       0.000387
 5338 Fit       0.001580
 5339 Fit       0.002594
 5340 Fit       0.003271
 5341 Fit       0.003386
 5342 Fit       0.003079
 5343 Fit       0.002797
 5344 Fit       0.000637
 5345 Fit      -0.000350
 5346 Fit       0.002642
 5347 Fit       0.002914
 5348 Fit       0.002346
 5349 Fit       0.002280
 5350 Fit       0.002512
 5351 Fit       0.002736
 5352 Fit       0.001115
 5353 Fit       0.001584
 5354 Fit       0.001977
 5355 Fit       0.001957
 5356 Fit       0.002145
 5357 Fit       0.002277
 5358 Fit       0.002440
 5359 Fit      -0.000401
 5360 Fit       0.000242
 5361 Fit       0.000808
 5362 Fit       0.001290
 5363 Fit       0.001675
 5364 Fit       0.001608
 5365 Fit       0.001755
 5366 Fit       0.001819
 5367 Fit       0.001838
 5368 Fit       0.001893
 5369 Fit      -0.001164
 5370 Fit      -0.000534
 5371 Fit       0.000049
 5372 Fit       0.000571
 5373 Fit       0.001014
 5374 Fit       0.001362
 5375 Fit       0.001201
 5376 Fit       0.001317
 5377 Fit       0.001333
 5378 Fit       0.001265
 5379 Fit       0.001142
 5380 Fit      -0.001393
 5381 Fit      -0.000828
 5382 Fit      -0.000279
 5383 Fit       0.000222
 5384 Fit       0.000647
 5385 Fit       0.000977
 5386 Fit       0.000721
 5387 Fit       0.000812
 5388 Fit       0.000797
 5389 Fit       0.000679
 5390 Fit       0.000465
 5391 Fit       0.000155
 5392 Fit      -0.001129
 5393 Fit      -0.000630
 5394 Fit      -0.000169
 5395 Fit       0.000222
 5396 Fit       0.000523
 5397 Fit       0.000168
 5398 Fit       0.000240
 5399 Fit       0.000203
 5400 Fit       0.000058
 5401 Fit      -0.000196
 5402 Fit      -0.000574
 5403 Fit      -0.001123
 5404 Fit      -0.001525
 5405 Fit      -0.001075
 5406 Fit      -0.000650
 5407 Fit      -0.000288
 5408 Fit      -0.000010
 5409 Fit      -0.000450
 5410 Fit      -0.000391
 5411 Fit      -0.000446
 5412 Fit      -0.000615
 5413 Fit      -0.000898
 5414 Fit      -0.001309
 5415 Fit      -0.001645
 5416 Fit      -0.001240
 5417 Fit      -0.000888
 5418 Fit      -0.000618
 5419 Fit      -0.001111
 5420 Fit      -0.001060
 5421 Fit      -0.001124
 5422 Fit      -0.001301
 5423 Fit      -0.001583
 5424 Fit      -0.001887
 5425 Fit      -0.001542
 5426 Fit      -0.001276
 5427 Fit      -0.001788
 5428 Fit      -0.001731
 5429 Fit      -0.001781
 5430 Fit      -0.001950
 5431 Fit      -0.001590
 5432 Fit      -0.001318
 5433 Fit      -0.000972
 5434 Fit      -0.001632
 5435 Fit      -0.001278
 5436 Fit      -0.000923
 5437 Fit      -0.000541
 5438 Fit      -0.000076
 5439 Fit      -0.001888
 5440 Fit      -0.001472
 5441 Fit      -0.001060
 5442 Fit      -0.000650
 5443 Fit      -0.000235
 5444 Fit       0.000210
 5445 Fit       0.000727
 5446 Fit       0.001373
 5447 Fit      -0.001367
 5448 Fit      -0.000932
 5449 Fit      -0.000497
 5450 Fit      -0.000064
 5451 Fit       0.000373
 5452 Fit       0.000828
 5453 Fit       0.001322
 5454 Fit       0.001868
 5455 Fit       0.002441
 5456 Fit       0.002970
 5457 Fit      -0.001791
 5458 Fit      -0.000866
 5459 Fit      -0.000401
 5460 Fit       0.000064
 5461 Fit       0.000522
 5462 Fit       0.000976
 5463 Fit       0.001429
 5464 Fit       0.001879
 5465 Fit       0.002299
 5466 Fit       0.002642
 5467 Fit      -0.001723
 5468 Fit      -0.001314
 5469 Fit      -0.000421
 5470 Fit       0.000057
 5471 Fit       0.000531
 5472 Fit       0.000987
 5473 Fit       0.001414
 5474 Fit       0.001796
 5475 Fit       0.002102
 5476 Fit       0.002283
 5477 Fit       0.002278
 5478 Fit      -0.001817
 5479 Fit      -0.001612
 5480 Fit      -0.001288
 5481 Fit      -0.000879
 5482 Fit      -0.000056
 5483 Fit       0.000437
 5484 Fit       0.000913
 5485 Fit       0.001334
 5486 Fit       0.001664
 5487 Fit       0.001846
 5488 Fit       0.001802
 5489 Fit       0.001433
 5490 Fit      -0.000994
 5491 Fit      -0.001285
 5492 Fit      -0.001375
 5493 Fit      -0.001403
 5494 Fit      -0.001365
 5495 Fit      -0.001213
 5496 Fit      -0.000928
 5497 Fit      -0.000527
 5498 Fit       0.000212
 5499 Fit       0.000732
 5500 Fit       0.001172
 5501 Fit       0.001417
 5502 Fit       0.001343
 5503 Fit       0.000862
 5504 Fit       0.000117
 5505 Fit      -0.000479
 5506 Fit      -0.000755
 5507 Fit      -0.000798
 5508 Fit      -0.000638
 5509 Fit      -0.000280
 5510 Fit       0.000373
 5511 Fit       0.000862
 5512 Fit       0.000891
 5513 Fit       0.000340
 5514 Fit      -0.000134
 5515 Fit      -0.000090
 5516 Fit       0.000419
 5517 Fit      -0.000603
 5518 Fit      -0.001154
 5519 Fit      -0.001626
 5520 Fit       0.000836
 5521 Fit       0.000176
 5522 Fit      -0.000405
 5523 Fit      -0.000959
 5524 Fit      -0.001489
 5525 Fit       0.001611
 5526 Fit       0.001003
 5527 Fit       0.000426
 5528 Fit      -0.000155
 5529 Fit      -0.000751
 5530 Fit      -0.001344
 5531 Fit       0.002636
 5532 Fit       0.002113
 5533 Fit       0.001606
 5534 Fit       0.001090
 5535 Fit       0.000546
 5536 Fit      -0.000034
 5537 Fit      -0.000647
 5538 Fit      -0.001272
 5539 Fit       0.003379
 5540 Fit       0.002937
 5541 Fit       0.002521
 5542 Fit       0.002105
 5543 Fit       0.001666
 5544 Fit       0.001189
 5545 Fit       0.000661
 5546 Fit       0.000083
 5547 Fit      -0.000539
 5548 Fit      -0.001185
 5549 Fit      -0.001824
 5550 Fit       0.002973
 5551 Fit       0.002587
 5552 Fit       0.002218
 5553 Fit       0.001823
 5554 Fit       0.001377
 5555 Fit       0.000870
 5556 Fit       0.000297
 5557 Fit      -0.000333
 5558 Fit      -0.001002
 5559 Fit      -0.001684
 5560 Fit       0.002615
 5561 Fit       0.002270
 5562 Fit       0.001920
 5563 Fit       0.001520
 5564 Fit       0.001050
 5565 Fit       0.000502
 5566 Fit      -0.000118
 5567 Fit      -0.000794
 5568 Fit      -0.001502
 5569 Fit       0.002452
 5570 Fit       0.002126
 5571 Fit       0.001828
 5572 Fit       0.001489
 5573 Fit       0.001076
 5574 Fit       0.000577
 5575 Fit      -0.000006
 5576 Fit      -0.000658
 5577 Fit      -0.001355
 5578 Fit       0.001664
 5579 Fit       0.001423
 5580 Fit       0.001113
 5581 Fit       0.000703
 5582 Fit       0.000185
 5583 Fit      -0.000430
 5584 Fit      -0.001118
 5585 Fit      -0.001839
 5586 Fit       0.000982
 5587 Fit       0.000857
 5588 Fit       0.000603
 5589 Fit       0.000211
 5590 Fit      -0.000314
 5591 Fit      -0.000947
 5592 Fit      -0.001640
 5593 Fit      -0.000011
 5594 Fit       0.000149
 5595 Fit       0.000044
 5596 Fit      -0.000281
 5597 Fit      -0.000791
 5598 Fit      -0.001428
 5599 Fit      -0.001046
 5600 Fit      -0.000682
 5601 Fit      -0.000775
 5602 Fit      -0.001218
 5603 Fit      -0.000710
 5604 Fit      -0.000029
 5605 Fit      -0.000512
 5606 Fit      -0.001100
 5607 Fit      -0.001043
 5608 Fit      -0.000231
 5609 Fit       0.000601
 5610 Fit       0.000189
 5611 Fit      -0.000403
 5612 Fit      -0.001013
 5613 Fit       0.000731
 5614 Fit       0.001124
 5615 Fit       0.000735
 5616 Fit       0.000224
 5617 Fit      -0.000370
 5618 Fit      -0.000974
 5619 Fit      -0.001481
 5620 Fit       0.001514
 5621 Fit       0.001382
 5622 Fit       0.001514
 5623 Fit       0.001122
 5624 Fit       0.000645
 5625 Fit       0.000090
 5626 Fit      -0.000515
 5627 Fit      -0.001121
 5628 Fit      -0.001652
 5629 Fit       0.002123
 5630 Fit       0.001834
 5631 Fit       0.001758
 5632 Fit       0.001354
 5633 Fit       0.000889
 5634 Fit       0.000359
 5635 Fit      -0.000226
 5636 Fit      -0.000843
 5637 Fit      -0.001449
 5638 Fit       0.002485
 5639 Fit       0.002123
 5640 Fit       0.001856
 5641 Fit       0.001443
 5642 Fit       0.000996
 5643 Fit       0.000500
 5644 Fit      -0.000045
 5645 Fit      -0.000630
 5646 Fit      -0.001232
 5647 Fit      -0.001818
 5648 Fit       0.003152
 5649 Fit       0.002673
 5650 Fit       0.002256
 5651 Fit       0.001803
 5652 Fit       0.001358
 5653 Fit       0.000901
 5654 Fit       0.000409
 5655 Fit      -0.000126
 5656 Fit      -0.000700
 5657 Fit      -0.001298
 5658 Fit      -0.001898
 5659 Fit       0.002805
 5660 Fit       0.002273
 5661 Fit       0.001594
 5662 Fit       0.001122
 5663 Fit       0.000668
 5664 Fit       0.000196
 5665 Fit      -0.000310
 5666 Fit      -0.000852
 5667 Fit      -0.001420
 5668 Fit      -0.001998
 5669 Fit       0.002144
 5670 Fit       0.001209
 5671 Fit       0.000717
 5672 Fit       0.000273
 5673 Fit      -0.000175
 5674 Fit      -0.000652
 5675 Fit      -0.001159
 5676 Fit      -0.001689
 5677 Fit       0.000616
 5678 Fit       0.000126
 5679 Fit      -0.000294
 5680 Fit      -0.000718
 5681 Fit      -0.001168
 5682 Fit      -0.001645
 5683 Fit      -0.000628
 5684 Fit      -0.000977
 5685 Fit      -0.001345
 5686 Fit      -0.001744
 5687 Fit      -0.001487
 5688 Fit      -0.001688
 5689 Fit       0.000169
 5690 Fit      -0.000767
 5691 Fit      -0.000293
 5692 Fit       0.000582
 5693 Fit       0.001212
 5694 Fit       0.000751
 5695 Fit      -0.000428
 5696 Fit      -0.000712
 5697 Fit       0.000023
 5698 Fit       0.000830
 5699 Fit       0.001634
 5700 Fit       0.002302
 5701 Fit      -0.001117
 5702 Fit      -0.000486
 5703 Fit       0.000207
 5704 Fit       0.000911
 5705 Fit       0.001658
 5706 Fit      -0.001436
 5707 Fit      -0.000839
 5708 Fit      -0.000202
 5709 Fit       0.000420
 5710 Fit       0.001026
 5711 Fit       0.001706
 5712 Fit      -0.001677
 5713 Fit      -0.001083
 5714 Fit      -0.000478
 5715 Fit       0.000081
 5716 Fit       0.000572
 5717 Fit       0.001042
 5718 Fit      -0.001356
 5719 Fit      -0.000792
 5720 Fit      -0.000295
 5721 Fit       0.000091
 5722 Fit       0.000355
 5723 Fit      -0.001387
 5724 Fit      -0.000870
 5725 Fit      -0.000471
 5726 Fit      -0.000258
 5727 Fit      -0.001439
 5728 Fit      -0.000995
 5729 Fit      -0.000719
 5730 Fit      -0.000719
 5731 Fit      -0.001367
 5732 Fit      -0.001028
 5733 Fit      -0.000938
 5734 Fit      -0.001394
 5735 Fit      -0.001009
 5736 Fit      -0.001872
 5737 Fit      -0.001734
 5738 Fit      -0.001634
 5739 Fit      -0.001568
 5740 Fit      -0.001644
 5741 Fit      -0.001409
 5742 Fit      -0.001204
 5743 Fit      -0.001040
 5744 Fit      -0.000920
 5745 Fit      -0.000837
 5746 Fit      -0.000773
 5747 Fit      -0.000689
 5748 Fit      -0.000511
 5749 Fit      -0.001610
 5750 Fit      -0.001273
 5751 Fit      -0.000971
 5752 Fit      -0.000706
 5753 Fit      -0.000486
 5754 Fit      -0.000314
 5755 Fit      -0.000189
 5756 Fit      -0.000098
 5757 Fit      -0.000015
 5758 Fit       0.000113
 5759 Fit       0.000391
 5760 Fit      -0.001339
 5761 Fit      -0.000921
 5762 Fit      -0.000564
 5763 Fit      -0.000251
 5764 Fit       0.000015
 5765 Fit       0.000232
 5766 Fit       0.000396
 5767 Fit       0.000518
 5768 Fit       0.000616
 5769 Fit       0.000734
 5770 Fit       0.000947
 5771 Fit       0.001395
 5772 Fit      -0.000524
 5773 Fit      -0.000169
 5774 Fit       0.000154
 5775 Fit       0.000443
 5776 Fit       0.000689
 5777 Fit       0.000886
 5778 Fit       0.001038
 5779 Fit       0.001156
 5780 Fit       0.001269
 5781 Fit       0.001427
 5782 Fit       0.001705
 5783 Fit       0.000378
 5784 Fit       0.000626
 5785 Fit       0.000895
 5786 Fit       0.001145
 5787 Fit       0.001356
 5788 Fit       0.001524
 5789 Fit       0.001657
 5790 Fit       0.001786
 5791 Fit       0.001954
 5792 Fit       0.002218
 5793 Fit       0.002603
 5794 Fit       0.001227
 5795 Fit       0.001355
 5796 Fit       0.001554
 5797 Fit       0.001755
 5798 Fit       0.001928
 5799 Fit       0.002073
 5800 Fit       0.002216
 5801 Fit       0.002397
 5802 Fit       0.002660
 5803 Fit       0.001936
 5804 Fit       0.001986
 5805 Fit       0.002136
 5806 Fit       0.002300
 5807 Fit       0.002460
 5808 Fit       0.002645
 5809 Fit       0.002922
 5810 Fit       0.002464
 5811 Fit       0.002514
 5812 Fit       0.002676
 5813 Fit       0.002909
 5814 Fit       0.003056
 5815 Fit       0.002888
 5816 Fit       0.003125
 -----------------------------------------------------------------
 Leave Link  602 at Thu Nov  2 13:07:43 2023, MaxMem=   134217728 cpu:               0.6 elap:               0.5

 Test job not archived.
 1\1\GINC-LAC-401\FOpt\RHF\6-31G(d)\C8H18\RAHNAMOU\02-Nov-2023\0\\#HF/6
 -31G* SCF=tight Pop=MK iop(6/33=2) iop(6/42=6) opt\\mobley_1139153\\0,
 1\C,1.1624088033,1.9001660791,-0.093722994\C,0.3479655335,1.0765349678
 ,0.9094575118\C,1.244395496,0.5763882001,2.0507021957\C,-0.5792918855,
 -0.0046179133,0.2992596691\C,-0.1017105099,-1.1229587686,-0.6691347574
 \C,1.1330250481,-1.8821615113,-0.1622233365\C,-1.2670387315,-2.1242241
 595,-0.7809895743\C,0.1825207914,-0.5834594133,-2.0816460552\H,0.54544
 67043,2.2651433715,-0.9088677796\H,1.5977125583,2.7635869586,0.4013747
 415\H,1.9803230456,1.3299244187,-0.5209729649\H,-0.3516951664,1.771307
 1371,1.3720368612\H,0.6775305261,-0.0057296078,2.7714855036\H,2.064644
 9508,-0.0374991482,1.699530418\H,1.6770457599,1.4206461106,2.580387768
 6\H,-1.0576175447,-0.4957436447,1.1444589536\H,-1.3797831561,0.5227629
 358,-0.2166490583\H,1.3319906737,-2.7404293164,-0.7981447655\H,0.98819
 93135,-2.2494091813,0.8493450324\H,2.0224229184,-1.262699037,-0.170659
 0813\H,-1.0341353331,-2.9138695343,-1.4895746328\H,-2.1759262398,-1.63
 43316638,-1.1193927396\H,-1.4793843479,-2.5909236565,0.1766132631\H,0.
 3854332611,-1.4048405961,-2.7634383834\H,1.0388700525,0.0774229957,-2.
 1094343614\H,-0.6723525217,-0.037986023,-2.4718014347\\Version=ES64L-G
 16RevC.01\State=1-A\HF=-313.4222888\RMSD=4.870e-09\RMSF=2.063e-06\Dipo
 le=-0.0267927,0.0347257,0.0219077\Quadrupole=-0.0563538,0.1614744,-0.1
 051206,-0.2686497,-0.1915285,0.1800724\PG=C01 [X(C8H18)]\\@


 TO SEE A WORLD IN A GRAIN OF SAND
 AND A HEAVEN IN A WILD FLOWER
 HOLD INFINITY IN THE PALM OF YOUR HAND
 AND ETERNITY IN AN HOUR

                       -- WILLIAM BLAKE
 Job cpu time:       0 days  0 hours  2 minutes 48.7 seconds.
 Elapsed time:       0 days  0 hours  2 minutes 46.3 seconds.
 File lengths (MBytes):  RWF=    272 Int=      0 D2E=      0 Chk=     32 Scr=     32
 Normal termination of Gaussian 16 at Thu Nov  2 13:07:43 2023.
