 Entering Gaussian System, Link 0=/opt/software/Gaussian/g16-AVX2-C.01/g16/g16
 Input=mobley_1189457.com
 Output=mobley_1189457.log
 Initial command:
 /opt/software/Gaussian/g16-AVX2-C.01/g16/l1.exe "/mnt/gs21/scratch/rahnamou/Gau-29379.inp" -scrdir="/mnt/gs21/scratch/rahnamou/"
 Entering Link 1 = /opt/software/Gaussian/g16-AVX2-C.01/g16/l1.exe PID=     29389.
  
 Copyright (c) 1988-2019, Gaussian, Inc.  All Rights Reserved.
  
 This is part of the Gaussian(R) 16 program.  It is based on
 the Gaussian(R) 09 system (copyright 2009, Gaussian, Inc.),
 the Gaussian(R) 03 system (copyright 2003, Gaussian, Inc.),
 the Gaussian(R) 98 system (copyright 1998, Gaussian, Inc.),
 the Gaussian(R) 94 system (copyright 1995, Gaussian, Inc.),
 the Gaussian 92(TM) system (copyright 1992, Gaussian, Inc.),
 the Gaussian 90(TM) system (copyright 1990, Gaussian, Inc.),
 the Gaussian 88(TM) system (copyright 1988, Gaussian, Inc.),
 the Gaussian 86(TM) system (copyright 1986, Carnegie Mellon
 University), and the Gaussian 82(TM) system (copyright 1983,
 Carnegie Mellon University). Gaussian is a federally registered
 trademark of Gaussian, Inc.
  
 This software contains proprietary and confidential information,
 including trade secrets, belonging to Gaussian, Inc.
  
 This software is provided under written license and may be
 used, copied, transmitted, or stored only in accord with that
 written license.
  
 The following legend is applicable only to US Government
 contracts under FAR:
  
                    RESTRICTED RIGHTS LEGEND
  
 Use, reproduction and disclosure by the US Government is
 subject to restrictions as set forth in subparagraphs (a)
 and (c) of the Commercial Computer Software - Restricted
 Rights clause in FAR 52.227-19.
  
 Gaussian, Inc.
 340 Quinnipiac St., Bldg. 40, Wallingford CT 06492
  
  
 ---------------------------------------------------------------
 Warning -- This program may not be used in any manner that
 competes with the business of Gaussian, Inc. or will provide
 assistance to any competitor of Gaussian, Inc.  The licensee
 of this program is prohibited from giving any competitor of
 Gaussian, Inc. access to this program.  By using this program,
 the user acknowledges that Gaussian, Inc. is engaged in the
 business of creating and licensing software in the field of
 computational chemistry and represents and warrants to the
 licensee that it is not a competitor of Gaussian, Inc. and that
 it will not use this program in any manner prohibited above.
 ---------------------------------------------------------------
  

 Cite this work as:
 Gaussian 16, Revision C.01,
 M. J. Frisch, G. W. Trucks, H. B. Schlegel, G. E. Scuseria, 
 M. A. Robb, J. R. Cheeseman, G. Scalmani, V. Barone, 
 G. A. Petersson, H. Nakatsuji, X. Li, M. Caricato, A. V. Marenich, 
 J. Bloino, B. G. Janesko, R. Gomperts, B. Mennucci, H. P. Hratchian, 
 J. V. Ortiz, A. F. Izmaylov, J. L. Sonnenberg, D. Williams-Young, 
 F. Ding, F. Lipparini, F. Egidi, J. Goings, B. Peng, A. Petrone, 
 T. Henderson, D. Ranasinghe, V. G. Zakrzewski, J. Gao, N. Rega, 
 G. Zheng, W. Liang, M. Hada, M. Ehara, K. Toyota, R. Fukuda, 
 J. Hasegawa, M. Ishida, T. Nakajima, Y. Honda, O. Kitao, H. Nakai, 
 T. Vreven, K. Throssell, J. A. Montgomery, Jr., J. E. Peralta, 
 F. Ogliaro, M. J. Bearpark, J. J. Heyd, E. N. Brothers, K. N. Kudin, 
 V. N. Staroverov, T. A. Keith, R. Kobayashi, J. Normand, 
 K. Raghavachari, A. P. Rendell, J. C. Burant, S. S. Iyengar, 
 J. Tomasi, M. Cossi, J. M. Millam, M. Klene, C. Adamo, R. Cammi, 
 J. W. Ochterski, R. L. Martin, K. Morokuma, O. Farkas, 
 J. B. Foresman, and D. J. Fox, Gaussian, Inc., Wallingford CT, 2019.
 
 ******************************************
 Gaussian 16:  ES64L-G16RevC.01  3-Jul-2019
                 2-Nov-2023 
 ******************************************
 %chk=mobley_1189457.chk
 %mem=1GB
 %NProcShared=1
 Will use up to    1 processors via shared memory.
 -------------------------------------------------------
 #HF/6-31G* SCF=tight Pop=MK iop(6/33=2) iop(6/42=6) opt
 -------------------------------------------------------
 1/18=20,19=15,38=1/1,3;
 2/9=110,12=2,17=6,18=5,40=1/2;
 3/5=1,6=6,7=1,11=9,25=1,30=1,71=1/1,2,3;
 4//1;
 5/5=2,32=2,38=5/2;
 6/7=2,8=2,9=2,10=2,15=8,20=1,28=1,33=2,42=6/1,2;
 7//1,2,3,16;
 1/18=20,19=15/3(2);
 2/9=110/2;
 99//99;
 2/9=110/2;
 3/5=1,6=6,7=1,11=9,25=1,30=1,71=1/1,2,3;
 4/5=5,16=3,69=1/1;
 5/5=2,32=2,38=5/2;
 7//1,2,3,16;
 1/18=20,19=15/3(-5);
 2/9=110/2;
 6/7=2,8=2,9=2,10=2,15=8,19=2,20=1,28=1,33=2,42=6/1,2;
 99/9=1/99;
 --------------
 mobley_1189457
 --------------
 Symbolic Z-matrix:
 Charge =  0 Multiplicity = 1
 C                     1.986    -2.783    -2.237 
 S                     1.94     -1.008    -1.894 
 C                     1.885    -1.036    -0.112 
 C                     2.921    -1.631     0.608 
 C                     2.878    -1.652     2.002 
 C                     1.8      -1.079     2.676 
 C                     0.764    -0.484     1.955 
 C                     0.807    -0.463     0.561 
 H                     2.023    -2.952    -3.316 
 H                     1.091    -3.262    -1.832 
 H                     2.87     -3.228    -1.775 
 H                     3.771    -2.082     0.101 
 H                     3.685    -2.113     2.564 
 H                     1.768    -1.093     3.761 
 H                    -0.075    -0.036     2.479 
 H                    -0.01      0.006     0.017 
 

 GradGradGradGradGradGradGradGradGradGradGradGradGradGradGradGradGradGrad
 Berny optimization.
 Initialization pass.
                           ----------------------------
                           !    Initial Parameters    !
                           ! (Angstroms and Degrees)  !
 --------------------------                            --------------------------
 ! Name  Definition              Value          Derivative Info.                !
 --------------------------------------------------------------------------------
 ! R1    R(1,2)                  1.8084         estimate D2E/DX2                !
 ! R2    R(1,9)                  1.0928         estimate D2E/DX2                !
 ! R3    R(1,10)                 1.0929         estimate D2E/DX2                !
 ! R4    R(1,11)                 1.0922         estimate D2E/DX2                !
 ! R5    R(2,3)                  1.7831         estimate D2E/DX2                !
 ! R6    R(3,4)                  1.3949         estimate D2E/DX2                !
 ! R7    R(3,8)                  1.394          estimate D2E/DX2                !
 ! R8    R(4,5)                  1.3948         estimate D2E/DX2                !
 ! R9    R(4,12)                 1.0876         estimate D2E/DX2                !
 ! R10   R(5,6)                  1.3945         estimate D2E/DX2                !
 ! R11   R(5,13)                 1.0861         estimate D2E/DX2                !
 ! R12   R(6,7)                  1.3954         estimate D2E/DX2                !
 ! R13   R(6,14)                 1.0856         estimate D2E/DX2                !
 ! R14   R(7,8)                  1.3948         estimate D2E/DX2                !
 ! R15   R(7,15)                 1.0859         estimate D2E/DX2                !
 ! R16   R(8,16)                 1.0878         estimate D2E/DX2                !
 ! A1    A(2,1,9)              109.8726         estimate D2E/DX2                !
 ! A2    A(2,1,10)             109.8195         estimate D2E/DX2                !
 ! A3    A(2,1,11)             109.8927         estimate D2E/DX2                !
 ! A4    A(9,1,10)             109.0164         estimate D2E/DX2                !
 ! A5    A(9,1,11)             109.1018         estimate D2E/DX2                !
 ! A6    A(10,1,11)            109.1159         estimate D2E/DX2                !
 ! A7    A(1,2,3)              100.0744         estimate D2E/DX2                !
 ! A8    A(2,3,4)              119.9768         estimate D2E/DX2                !
 ! A9    A(2,3,8)              119.992          estimate D2E/DX2                !
 ! A10   A(4,3,8)              120.0312         estimate D2E/DX2                !
 ! A11   A(3,4,5)              119.9597         estimate D2E/DX2                !
 ! A12   A(3,4,12)             121.1113         estimate D2E/DX2                !
 ! A13   A(5,4,12)             118.9289         estimate D2E/DX2                !
 ! A14   A(4,5,6)              120.045          estimate D2E/DX2                !
 ! A15   A(4,5,13)             120.0415         estimate D2E/DX2                !
 ! A16   A(6,5,13)             119.9134         estimate D2E/DX2                !
 ! A17   A(5,6,7)              119.9601         estimate D2E/DX2                !
 ! A18   A(5,6,14)             120.0369         estimate D2E/DX2                !
 ! A19   A(7,6,14)             120.0027         estimate D2E/DX2                !
 ! A20   A(6,7,8)              119.9949         estimate D2E/DX2                !
 ! A21   A(6,7,15)             120.0138         estimate D2E/DX2                !
 ! A22   A(8,7,15)             119.9913         estimate D2E/DX2                !
 ! A23   A(3,8,7)              120.0091         estimate D2E/DX2                !
 ! A24   A(3,8,16)             121.1016         estimate D2E/DX2                !
 ! A25   A(7,8,16)             118.8893         estimate D2E/DX2                !
 ! D1    D(9,1,2,3)            179.9999         estimate D2E/DX2                !
 ! D2    D(10,1,2,3)            60.0954         estimate D2E/DX2                !
 ! D3    D(11,1,2,3)           -59.9444         estimate D2E/DX2                !
 ! D4    D(1,2,3,4)             59.9511         estimate D2E/DX2                !
 ! D5    D(1,2,3,8)           -120.067          estimate D2E/DX2                !
 ! D6    D(2,3,4,5)            179.9619         estimate D2E/DX2                !
 ! D7    D(2,3,4,12)             0.0668         estimate D2E/DX2                !
 ! D8    D(8,3,4,5)             -0.0199         estimate D2E/DX2                !
 ! D9    D(8,3,4,12)          -179.9151         estimate D2E/DX2                !
 ! D10   D(2,3,8,7)           -179.9619         estimate D2E/DX2                !
 ! D11   D(2,3,8,16)            -0.0114         estimate D2E/DX2                !
 ! D12   D(4,3,8,7)              0.02           estimate D2E/DX2                !
 ! D13   D(4,3,8,16)           179.9705         estimate D2E/DX2                !
 ! D14   D(3,4,5,6)              0.0186         estimate D2E/DX2                !
 ! D15   D(3,4,5,13)          -179.8658         estimate D2E/DX2                !
 ! D16   D(12,4,5,6)           179.9161         estimate D2E/DX2                !
 ! D17   D(12,4,5,13)            0.0317         estimate D2E/DX2                !
 ! D18   D(4,5,6,7)             -0.0173         estimate D2E/DX2                !
 ! D19   D(4,5,6,14)          -179.8316         estimate D2E/DX2                !
 ! D20   D(13,5,6,7)           179.8673         estimate D2E/DX2                !
 ! D21   D(13,5,6,14)            0.0529         estimate D2E/DX2                !
 ! D22   D(5,6,7,8)              0.0173         estimate D2E/DX2                !
 ! D23   D(5,6,7,15)          -179.8923         estimate D2E/DX2                !
 ! D24   D(14,6,7,8)           179.8317         estimate D2E/DX2                !
 ! D25   D(14,6,7,15)           -0.0779         estimate D2E/DX2                !
 ! D26   D(6,7,8,3)             -0.0186         estimate D2E/DX2                !
 ! D27   D(6,7,8,16)          -179.9702         estimate D2E/DX2                !
 ! D28   D(15,7,8,3)           179.891          estimate D2E/DX2                !
 ! D29   D(15,7,8,16)           -0.0606         estimate D2E/DX2                !
 --------------------------------------------------------------------------------
 Trust Radius=3.00D-01 FncErr=1.00D-07 GrdErr=1.00D-07 EigMax=2.50D+02 EigMin=1.00D-04
 Number of steps in this run=     80 maximum allowed number of steps=    100.
 GradGradGradGradGradGradGradGradGradGradGradGradGradGradGradGradGradGrad

                          Input orientation:                          
 ---------------------------------------------------------------------
 Center     Atomic      Atomic             Coordinates (Angstroms)
 Number     Number       Type             X           Y           Z
 ---------------------------------------------------------------------
      1          6           0        1.986000   -2.783000   -2.237000
      2         16           0        1.940000   -1.008000   -1.894000
      3          6           0        1.885000   -1.036000   -0.112000
      4          6           0        2.921000   -1.631000    0.608000
      5          6           0        2.878000   -1.652000    2.002000
      6          6           0        1.800000   -1.079000    2.676000
      7          6           0        0.764000   -0.484000    1.955000
      8          6           0        0.807000   -0.463000    0.561000
      9          1           0        2.023000   -2.952000   -3.316000
     10          1           0        1.091000   -3.262000   -1.832000
     11          1           0        2.870000   -3.228000   -1.775000
     12          1           0        3.771000   -2.082000    0.101000
     13          1           0        3.685000   -2.113000    2.564000
     14          1           0        1.768000   -1.093000    3.761000
     15          1           0       -0.075000   -0.036000    2.479000
     16          1           0       -0.010000    0.006000    0.017000
 ---------------------------------------------------------------------
                    Distance matrix (angstroms):
                    1          2          3          4          5
     1  C    0.000000
     2  S    1.808422   0.000000
     3  C    2.752787   1.783068   0.000000
     4  C    3.208637   2.758712   1.394891   0.000000
     5  C    4.477047   4.058743   2.415471   1.394821   0.000000
     6  C    5.203439   4.572695   2.789627   2.416189   1.394521
     7  C    4.934729   4.058615   2.415333   2.789743   2.415663
     8  C    3.821158   2.758213   1.394038   2.415663   2.789129
     9  H    1.092781   2.410002   3.735735   4.236652   5.540952
    10  H    1.092928   2.409390   2.922997   3.458708   4.526039
    11  H    1.092211   2.409867   2.922440   2.869094   4.092624
    12  H    3.023883   2.913085   2.167137   1.087635   2.143863
    13  H    5.136643   4.913228   3.400133   2.154520   1.086100
    14  H    6.235353   5.658254   3.875186   3.400039   2.153755
    15  H    5.833900   4.912040   3.399247   3.875652   3.399881
    16  H    4.104029   2.912493   2.166433   3.408784   3.876820
                    6          7          8          9         10
     6  C    0.000000
     7  C    1.395407   0.000000
     8  C    2.416346   1.394821   0.000000
     9  H    6.281872   5.954792   4.764967   0.000000
    10  H    5.058679   4.708034   3.693441   1.779601   0.000000
    11  H    5.057124   5.087010   4.166304   1.779962   1.780238
    12  H    3.394330   3.877237   3.408527   3.935517   3.508745
    13  H    2.152888   3.399524   3.875228   6.167703   5.232003
    14  H    1.085562   2.154190   3.400062   7.321532   6.036931
    15  H    2.154596   1.085910   2.153828   6.818114   5.509206
    16  H    3.394644   2.143600   1.087835   4.898137   3.912905
                   11         12         13         14         15
    11  H    0.000000
    12  H    2.375814   0.000000
    13  H    4.553501   2.464696   0.000000
    14  H    6.034892   4.287858   2.479536   0.000000
    15  H    6.079342   4.963136   4.296365   2.481415   0.000000
    16  H    4.686621   4.320042   4.962902   4.287962   2.463216
                   16
    16  H    0.000000
 Stoichiometry    C7H8S
 Framework group  C1[X(C7H8S)]
 Deg. of freedom    42
 Full point group                 C1      NOp   1
 Largest Abelian subgroup         C1      NOp   1
 Largest concise Abelian subgroup C1      NOp   1
                         Standard orientation:                         
 ---------------------------------------------------------------------
 Center     Atomic      Atomic             Coordinates (Angstroms)
 Number     Number       Type             X           Y           Z
 ---------------------------------------------------------------------
      1          6           0        2.544216    0.611622    0.822581
      2         16           0        1.870976   -0.457723   -0.471111
      3          6           0        0.126042   -0.190184   -0.220192
      4          6           0       -0.406804    1.093209   -0.341423
      5          6           0       -1.771978    1.301960   -0.145845
      6          6           0       -2.604058    0.228704    0.171097
      7          6           0       -2.070231   -1.054854    0.292219
      8          6           0       -0.705058   -1.263605    0.096641
      9          1           0        3.636010    0.566693    0.810815
     10          1           0        2.184732    0.281550    1.800495
     11          1           0        2.227108    1.643172    0.654442
     12          1           0        0.225169    1.942989   -0.589280
     13          1           0       -2.188637    2.300335   -0.242053
     14          1           0       -3.666976    0.390875    0.320596
     15          1           0       -2.717659   -1.891508    0.537269
     16          1           0       -0.308139   -2.271655    0.195016
 ---------------------------------------------------------------------
 Rotational constants (GHZ):           4.0612529           1.1447479           0.9756005
 Standard basis: 6-31G(d) (6D, 7F)
 There are   140 symmetry adapted cartesian basis functions of A   symmetry.
 There are   140 symmetry adapted basis functions of A   symmetry.
   140 basis functions,   280 primitive gaussians,   140 cartesian basis functions
    33 alpha electrons       33 beta electrons
       nuclear repulsion energy       403.0799832512 Hartrees.
 NAtoms=   16 NActive=   16 NUniq=   16 SFac= 1.00D+00 NAtFMM=   60 NAOKFM=F Big=F
 Integral buffers will be    131072 words long.
 Raffenetti 1 integral format.
 Two-electron integral symmetry is turned on.
 One-electron integrals computed using PRISM.
 NBasis=   140 RedAO= T EigKep=  5.00D-04  NBF=   140
 NBsUse=   140 1.00D-06 EigRej= -1.00D+00 NBFU=   140
 ExpMin= 1.17D-01 ExpMax= 2.19D+04 ExpMxC= 3.30D+03 IAcc=3 IRadAn=         5 AccDes= 0.00D+00
 Harris functional with IExCor=  205 and IRadAn=       5 diagonalized for initial guess.
 HarFok:  IExCor=  205 AccDes= 0.00D+00 IRadAn=         5 IDoV= 1 UseB2=F ITyADJ=14
 ICtDFT=  3500011 ScaDFX=  1.000000  1.000000  1.000000  1.000000
 FoFCou: FMM=F IPFlag=           0 FMFlag=      100000 FMFlg1=           0
         NFxFlg=           0 DoJE=T BraDBF=F KetDBF=T FulRan=T
         wScrn=  0.000000 ICntrl=       500 IOpCl=  0 I1Cent=   200000004 NGrid=           0
         NMat0=    1 NMatS0=      1 NMatT0=    0 NMatD0=    1 NMtDS0=    0 NMtDT0=    0
 Petite list used in FoFCou.
 Keep R1 ints in memory in canonical form, NReq=50116327.
 Requested convergence on RMS density matrix=1.00D-08 within 128 cycles.
 Requested convergence on MAX density matrix=1.00D-06.
 Requested convergence on             energy=1.00D-06.
 No special actions if energy rises.
 SCF Done:  E(RHF) =  -667.242408346     A.U. after   15 cycles
            NFock= 15  Conv=0.44D-08     -V/T= 2.0010
 SCF density gives NOpUse=  1 NOpAll=  1.

 **********************************************************************

            Population analysis using the SCF Density.

 **********************************************************************

 Orbital symmetries:
 BldTbl:  Degeneracy threshold= 1.00D-02
       Occupied  (A) (A) (A) (A) (A) (A) (A) (A) (A) (A) (A) (A)
                 (A) (A) (A) (A) (A) (A) (A) (A) (A) (A) (A) (A)
                 (A) (A) (A) (A) (A) (A) (A) (A) (A)
       Virtual   (A) (A) (A) (A) (A) (A) (A) (A) (A) (A) (A) (A)
                 (A) (A) (A) (A) (A) (A) (A) (A) (A) (A) (A) (A)
                 (A) (A) (A) (A) (A) (A) (A) (A) (A) (A) (A) (A)
                 (A) (A) (A) (A) (A) (A) (A) (A) (A) (A) (A) (A)
                 (A) (A) (A) (A) (A) (A) (A) (A) (A) (A) (A) (A)
                 (A) (A) (A) (A) (A) (A) (A) (A) (A) (A) (A) (A)
                 (A) (A) (A) (A) (A) (A) (A) (A) (A) (A) (A) (A)
                 (A) (A) (A) (A) (A) (A) (A) (A) (A) (A) (A) (A)
                 (A) (A) (A) (A) (A) (A) (A) (A) (A) (A) (A)
 The electronic state is 1-A.
 Alpha  occ. eigenvalues --  -91.93697 -11.26586 -11.25327 -11.24330 -11.24218
 Alpha  occ. eigenvalues --  -11.24144 -11.24054 -11.23969  -8.94680  -6.62979
 Alpha  occ. eigenvalues --   -6.62846  -6.62638  -1.15953  -1.06425  -1.01827
 Alpha  occ. eigenvalues --   -0.99305  -0.87330  -0.82952  -0.78890  -0.69512
 Alpha  occ. eigenvalues --   -0.63234  -0.63056  -0.59683  -0.59160  -0.58053
 Alpha  occ. eigenvalues --   -0.55315  -0.51628  -0.50146  -0.48689  -0.43948
 Alpha  occ. eigenvalues --   -0.36441  -0.33819  -0.31420
 Alpha virt. eigenvalues --    0.12590   0.13715   0.20415   0.22082   0.26804
 Alpha virt. eigenvalues --    0.27500   0.28252   0.29757   0.30112   0.31733
 Alpha virt. eigenvalues --    0.33279   0.35019   0.38071   0.44066   0.45939
 Alpha virt. eigenvalues --    0.46896   0.47329   0.55869   0.57672   0.58765
 Alpha virt. eigenvalues --    0.59799   0.64915   0.71121   0.72260   0.75120
 Alpha virt. eigenvalues --    0.76910   0.79251   0.80131   0.80880   0.81627
 Alpha virt. eigenvalues --    0.83370   0.83582   0.84095   0.84624   0.88744
 Alpha virt. eigenvalues --    0.91622   0.97640   0.99169   1.06771   1.08580
 Alpha virt. eigenvalues --    1.09665   1.10531   1.10804   1.11820   1.13606
 Alpha virt. eigenvalues --    1.15164   1.17462   1.17739   1.19427   1.20227
 Alpha virt. eigenvalues --    1.22183   1.23701   1.26424   1.27622   1.30497
 Alpha virt. eigenvalues --    1.35145   1.35869   1.41071   1.45460   1.49634
 Alpha virt. eigenvalues --    1.55714   1.61436   1.67772   1.69055   1.69283
 Alpha virt. eigenvalues --    1.75637   1.76775   1.78667   1.85025   2.00161
 Alpha virt. eigenvalues --    2.01233   2.05122   2.10787   2.11529   2.18851
 Alpha virt. eigenvalues --    2.29438   2.29889   2.39744   2.40110   2.45850
 Alpha virt. eigenvalues --    2.45920   2.46530   2.47647   2.50125   2.57144
 Alpha virt. eigenvalues --    2.58672   2.62509   2.63032   2.64797   2.86882
 Alpha virt. eigenvalues --    2.89710   2.99092   3.04172   3.07139   3.09007
 Alpha virt. eigenvalues --    3.09167   3.10272   3.39619   3.75638   4.36480
 Alpha virt. eigenvalues --    4.51261   4.53378   4.56379   4.63101   4.75040
 Alpha virt. eigenvalues --    4.76508   5.08905
          Condensed to atoms (all electrons):
               1          2          3          4          5          6
     1  C    5.323868   0.218126  -0.034870  -0.006024   0.000112   0.000017
     2  S    0.218126  15.617309   0.242509  -0.059104   0.003479   0.000006
     3  C   -0.034870   0.242509   5.092392   0.526976  -0.046163  -0.029939
     4  C   -0.006024  -0.059104   0.526976   4.938913   0.545155  -0.046201
     5  C    0.000112   0.003479  -0.046163   0.545155   4.892895   0.551115
     6  C    0.000017   0.000006  -0.029939  -0.046201   0.551115   4.890262
     7  C   -0.000115   0.003947  -0.048819  -0.031101  -0.045919   0.553266
     8  C   -0.000415  -0.058071   0.549231  -0.047256  -0.030814  -0.045659
     9  H    0.378306  -0.032346   0.003291   0.000109   0.000002  -0.000000
    10  H    0.373611  -0.043472  -0.001618   0.000095  -0.000009  -0.000014
    11  H    0.378684  -0.044514  -0.006545   0.004060  -0.000107   0.000003
    12  H   -0.000658  -0.001909  -0.032352   0.385301  -0.029770   0.002395
    13  H   -0.000000  -0.000139   0.002389  -0.030310   0.382732  -0.029708
    14  H    0.000000   0.000009   0.000152   0.002588  -0.030307   0.382192
    15  H    0.000001  -0.000131   0.002516   0.000181   0.002405  -0.029842
    16  H   -0.000019  -0.000202  -0.029778   0.002254   0.000135   0.002434
               7          8          9         10         11         12
     1  C   -0.000115  -0.000415   0.378306   0.373611   0.378684  -0.000658
     2  S    0.003947  -0.058071  -0.032346  -0.043472  -0.044514  -0.001909
     3  C   -0.048819   0.549231   0.003291  -0.001618  -0.006545  -0.032352
     4  C   -0.031101  -0.047256   0.000109   0.000095   0.004060   0.385301
     5  C   -0.045919  -0.030814   0.000002  -0.000009  -0.000107  -0.029770
     6  C    0.553266  -0.045659  -0.000000  -0.000014   0.000003   0.002395
     7  C    4.901017   0.539302   0.000000  -0.000037   0.000010   0.000178
     8  C    0.539302   4.924095  -0.000012   0.001511  -0.000303   0.002101
     9  H    0.000000  -0.000012   0.496621  -0.020913  -0.022213  -0.000010
    10  H   -0.000037   0.001511  -0.020913   0.526935  -0.033071   0.000019
    11  H    0.000010  -0.000303  -0.022213  -0.033071   0.534020   0.001201
    12  H    0.000178   0.002101  -0.000010   0.000019   0.001201   0.462899
    13  H    0.002412   0.000181  -0.000000  -0.000000   0.000008  -0.001491
    14  H   -0.030024   0.002489   0.000000  -0.000000  -0.000000  -0.000104
    15  H    0.382673  -0.029939  -0.000000   0.000001  -0.000000   0.000009
    16  H   -0.031206   0.384647  -0.000001   0.000010   0.000002  -0.000091
              13         14         15         16
     1  C   -0.000000   0.000000   0.000001  -0.000019
     2  S   -0.000139   0.000009  -0.000131  -0.000202
     3  C    0.002389   0.000152   0.002516  -0.029778
     4  C   -0.030310   0.002588   0.000181   0.002254
     5  C    0.382732  -0.030307   0.002405   0.000135
     6  C   -0.029708   0.382192  -0.029842   0.002434
     7  C    0.002412  -0.030024   0.382673  -0.031206
     8  C    0.000181   0.002489  -0.029939   0.384647
     9  H   -0.000000   0.000000  -0.000000  -0.000001
    10  H   -0.000000  -0.000000   0.000001   0.000010
    11  H    0.000008  -0.000000  -0.000000   0.000002
    12  H   -0.001491  -0.000104   0.000009  -0.000091
    13  H    0.470001  -0.001502  -0.000107   0.000009
    14  H   -0.001502   0.471554  -0.001478  -0.000101
    15  H   -0.000107  -0.001478   0.468752  -0.001573
    16  H    0.000009  -0.000101  -0.001573   0.452171
 Mulliken charges:
               1
     1  C   -0.630622
     2  S    0.154504
     3  C   -0.189372
     4  C   -0.185637
     5  C   -0.194940
     6  C   -0.200325
     7  C   -0.195585
     8  C   -0.191088
     9  H    0.197165
    10  H    0.196952
    11  H    0.188767
    12  H    0.212283
    13  H    0.205527
    14  H    0.204531
    15  H    0.206534
    16  H    0.221309
 Sum of Mulliken charges =  -0.00000
 Mulliken charges with hydrogens summed into heavy atoms:
               1
     1  C   -0.047739
     2  S    0.154504
     3  C   -0.189372
     4  C    0.026646
     5  C    0.010586
     6  C    0.004206
     7  C    0.010949
     8  C    0.030220
 DipInt: DoE/N= T F RetVal/Mat= T F Init=T NMatP=  1 IDeriv=0 Min/MaxMlt=  0  4
 Entering OneElI...
 OneElI was handed   134165052 working-precision words.
 Multipole integrals L=0 to 4 MinM= 0 MaxM= 0.
 Requested accuracy = 0.1000D-12
 ShPair: Thresh= 1.00D-13 NBox=     0 BxSize= 0.00D+00 RnKept= 1.38D+01
         NSMCal=                 1225 NSMKep=                1162
 PrmmSu-InSpLW:  IPartL=    0 NPrtUS=    1 NPrtUL=    1 DoSpLW=F IThBeg=    0 IThEnd=    0 NThAct=    1.
 PrSmSu:  IncTry=   512 NBBP=           1162 NTPThr=   100 NPartT=    1 Incr=          11 LDynOK=F GPUOK=F.
 PrsmSu:  NPrtUS=   1 ThrOK=F IAlg=2 LenDen=           0 ISkipM=0 DoSpLW=F IThBeg=    0 IThEnd=    0.
 Prism:   IPart=     0 DynPar=F LinDyn=F Incr=          11.
 PRISM was handed   134052211 working-precision words and  1162 shell-pairs
 IPart=  0 NShTot=        1162 NBatch=          43 AvBLen=        27.0
 PrsmSu-ThDecC:  IPartSL=    0    0 NPrtUSL=    1    1 IThBeg=    0 IThEnd=    0 CPU=   -1 GPU=   -1 NThAct=    1.
 PrSmSu:  NxtVal=             12.
 Electronic moments (au):
        -66.00000000         -0.37306917          0.41149528          0.51909889
       -868.86277489       -255.07739441        -96.30199386          1.95427034
          1.55733617         -0.77437783          7.71462678        -47.11990128
        -51.00030632        297.73123829       -134.57894118       -300.48417176
       -157.00787356        -24.09771866         -6.52074413       -195.25973831
     -20415.13165647      -2633.31454133       -561.63666687       -560.45393271
       -546.90537752        -39.71032663        182.58667119       -235.45733052
        -48.55812412      -2800.33187079      -1563.55255961       -335.71213631
       -344.09656033        -36.16816664       -125.90195368
 Electronic spatial extent (au):  <R**2>=           1220.2422
 DipInt: DoE/N= F T RetVal/Mat= T F Init=T NMatP=  1 IDeriv=0 Min/MaxMlt=  0  4
 Nuclear    moments (au):
         66.00000000         -0.00000000         -0.00000000          0.00000000
        831.63316932        217.06150331         52.26525803         -0.00000000
         -0.00000000         -0.00000000        -12.13688492         50.74451733
         55.04676222       -307.54559820        143.72345128        316.39719947
        162.93943794         22.73048401          5.80619203        198.42630176
      17532.96507549       1775.24502424        191.63326696        588.38408568
        560.38560546         54.56149484       -204.58275112        253.15123305
         51.72115015       2134.96941159        927.76003656        108.19748504
        334.30574116         29.48360330        125.79340338
 Total      moments (au):
         -0.00000000         -0.37306917          0.41149528          0.51909889
        -37.22960557        -38.01589110        -44.03673583          1.95427034
          1.55733617         -0.77437783         -4.42225814          3.62461606
          4.04645590         -9.81435992          9.14451010         15.91302771
          5.93156439         -1.36723465         -0.71455209          3.16656345
      -2882.16658098       -858.06951709       -370.00339991         27.93015297
         13.48022794         14.85116821        -21.99607993         17.69390254
          3.16302603       -665.36245920       -635.79252304       -227.51465127
         -9.79081917         -6.68456334         -0.10855030
 Traceless Quadrup. (au):
          2.53113860          1.74485306         -4.27599166          1.95427034
          1.55733617         -0.77437783
 Charge=             -0.0000 electrons
 Dipole moment (field-independent basis, Debye):
    X=             -0.9482    Y=              1.0459    Z=              1.3194  Tot=              1.9324
 Quadrupole moment (field-independent basis, Debye-Ang):
   XX=            -50.0751   YY=            -51.1327   ZZ=            -59.2309
   XY=              2.6286   XZ=              2.0947   YZ=             -1.0416
 Traceless Quadrupole moment (field-independent basis, Debye-Ang):
   XX=              3.4045   YY=              2.3469   ZZ=             -5.7514
   XY=              2.6286   XZ=              2.0947   YZ=             -1.0416
 Octapole moment (field-independent basis, Debye-Ang**2):
  XXX=             -3.1476  YYY=              2.5799  ZZZ=              2.8801  XYY=             -6.9855
  XXY=              6.5087  XXZ=             11.3263  XZZ=              4.2219  YZZ=             -0.9731
  YYZ=             -0.5086  XYZ=              2.2538
 Hexadecapole moment (field-independent basis, Debye-Ang**3):
 XXXX=          -1085.5621 YYYY=           -323.1901 ZZZZ=           -139.3610 XXXY=             10.5198
 XXXZ=              5.0773 YYYX=              5.5937 YYYZ=             -8.2848 ZZZX=              6.6644
 ZZZY=              1.1913 XXYY=           -250.6074 XXZZ=           -239.4700 YYZZ=            -85.6929
 XXYZ=             -3.6877 YYXZ=             -2.5177 ZZXY=             -0.0409
 N-N= 4.030799832512D+02 E-N=-2.380326752699D+03  KE= 6.666070998395D+02
 Entering OneElI...
 OneElI was handed   134174366 working-precision words.
 Calculate electrostatic properties
    NBasis =   140  MinDer = 0  MaxDer = 0
    NGrid  =    16  NMatD  =   1
 Requested accuracy = 0.1000D-12
 ShPair: Thresh= 1.00D-13 NBox=     0 BxSize= 0.00D+00 RnKept= 1.38D+01
         NSMCal=                 1225 NSMKep=                1109
 PrmmSu-InSpLW:  IPartL=    0 NPrtUS=    1 NPrtUL=    1 DoSpLW=F IThBeg=    0 IThEnd=    0 NThAct=    1.
 PrSmSu:  IncTry=   512 NBBP=          17744 NTPThr=   100 NPartT=    1 Incr=         177 LDynOK=F GPUOK=F.
 PrsmSu:  NPrtUS=   1 ThrOK=F IAlg=2 LenDen=           0 ISkipM=0 DoSpLW=F IThBeg=    0 IThEnd=    0.
 Prism:   IPart=     0 DynPar=F LinDyn=F Incr=         177.
 PRISM was handed   134068212 working-precision words and  1109 shell-pairs
 IPart=  0 NShTot=       17744 NBatch=        1109 AvBLen=        16.0
 PrsmSu-ThDecC:  IPartSL=    0    0 NPrtUSL=    1    1 IThBeg=    0 IThEnd=    0 CPU=   -1 GPU=   -1 NThAct=    1.
 PrSmSu:  NxtVal=            178.
 --------------------------------------------------------
       Center         ----      EFG at Nuclei      ----
                      3XX-RR        3YY-RR        3ZZ-RR
 --------------------------------------------------------
     1   Atom        0.061479     -0.004323     -0.057155
     2   Atom       -2.044640      1.381781      0.662859
     3   Atom       -0.050376      0.252005     -0.201629
     4   Atom        0.163614      0.134349     -0.297963
     5   Atom        0.172706      0.131902     -0.304609
     6   Atom        0.125048      0.187502     -0.312551
     7   Atom        0.159867      0.148778     -0.308644
     8   Atom        0.183970      0.130412     -0.314383
     9   Atom       -0.297128      0.149231      0.147897
    10   Atom        0.101093      0.106723     -0.207816
    11   Atom        0.111792     -0.249042      0.137249
    12   Atom       -0.011042     -0.129354      0.140396
    13   Atom        0.077507     -0.238783      0.161276
    14   Atom       -0.290750      0.134417      0.156333
    15   Atom       -0.016730     -0.124996      0.141726
    16   Atom        0.082725     -0.239936      0.157211
 --------------------------------------------------------
                        XY            XZ            YZ
 --------------------------------------------------------
     1   Atom       -0.068759     -0.090814     -0.151397
     2   Atom       -0.375777     -0.677328     -1.813818
     3   Atom        0.041801     -0.012418     -0.081667
     4   Atom       -0.033815     -0.086727     -0.056837
     5   Atom        0.011245     -0.086659     -0.078485
     6   Atom       -0.004975     -0.077437     -0.085755
     7   Atom       -0.044267     -0.077793     -0.072013
     8   Atom       -0.009989     -0.069479     -0.065662
     9   Atom        0.019425      0.006213     -0.007545
    10   Atom       -0.049265      0.129323      0.119080
    11   Atom        0.122392     -0.027434      0.064802
    12   Atom       -0.202113      0.060316      0.083515
    13   Atom        0.159737     -0.011804      0.040387
    14   Atom        0.067075      0.064887     -0.005829
    15   Atom       -0.207285      0.064575      0.082385
    16   Atom        0.150680     -0.010887      0.041606
 --------------------------------------------------------


 ---------------------------------------------------------------------------------
              Nuclear Quadrupole Coupling Constant in Principal Axis System
 ---------------------------------------------------------------------------------

       Atom             a.u.   MegaHertz   Gauss  10(-4) cm-1        Axes


 ---------------------------------------------------------------------------------

 No NMR shielding tensors so no spin-rotation constants.
 Leave Link  601 at Thu Nov  2 13:05:15 2023, MaxMem=   134217728 cpu:               0.1 elap:               0.1
 FitSet:  NAtFit=    16 NAtPot=    16 NAtFrz=     0 MDM=    20 TotChg=   0.00000
 Merz-Kollman atomic radii used.
 Atom Element Radius
    1     6    1.50
    2    16    1.75
    3     6    1.50
    4     6    1.50
    5     6    1.50
    6     6    1.50
    7     6    1.50
    8     6    1.50
    9     1    1.20
   10     1    1.20
   11     1    1.20
   12     1    1.20
   13     1    1.20
   14     1    1.20
   15     1    1.20
   16     1    1.20
 Generate VDW surfaces: Layer= 4 Dens= 6 Start= 1.400 Inc= 0.200

 **********************************************************************

            Electrostatic Properties Using The SCF Density.

 **********************************************************************

       Atomic Center    1 is at   2.544216  0.611622  0.822581
       Atomic Center    2 is at   1.870976 -0.457723 -0.471111
       Atomic Center    3 is at   0.126042 -0.190184 -0.220192
       Atomic Center    4 is at  -0.406804  1.093209 -0.341423
       Atomic Center    5 is at  -1.771978  1.301960 -0.145845
       Atomic Center    6 is at  -2.604058  0.228704  0.171097
       Atomic Center    7 is at  -2.070231 -1.054854  0.292219
       Atomic Center    8 is at  -0.705058 -1.263605  0.096641
       Atomic Center    9 is at   3.636010  0.566693  0.810815
       Atomic Center   10 is at   2.184732  0.281550  1.800495
       Atomic Center   11 is at   2.227108  1.643172  0.654442
       Atomic Center   12 is at   0.225169  1.942989 -0.589280
       Atomic Center   13 is at  -2.188637  2.300335 -0.242053
       Atomic Center   14 is at  -3.666976  0.390875  0.320596
       Atomic Center   15 is at  -2.717659 -1.891508  0.537269
       Atomic Center   16 is at  -0.308139 -2.271655  0.195016
      ESP Fit Center   17 is at   3.710914  0.611622  2.568667
      ESP Fit Center   18 is at   3.632129  1.033082  2.568667
      ESP Fit Center   19 is at   3.406416  1.397621  2.568667
      ESP Fit Center   20 is at   3.064258  1.656007  2.568667
      ESP Fit Center   21 is at   2.651865  1.773342  2.568667
      ESP Fit Center   22 is at   3.793414  1.414432  2.307505
      ESP Fit Center   23 is at   3.516635  1.733853  2.307505
      ESP Fit Center   24 is at   3.161076  1.962356  2.307505
      ESP Fit Center   25 is at   2.755543  2.081432  2.307505
      ESP Fit Center   26 is at   2.332889  2.081432  2.307505
      ESP Fit Center   27 is at   1.927356  1.962356  2.307505
      ESP Fit Center   28 is at   3.793414 -0.191189  2.307505
      ESP Fit Center   29 is at   3.851180  1.769491  1.989279
      ESP Fit Center   30 is at   3.536106  2.048623  1.989279
      ESP Fit Center   31 is at   3.163387  2.244241  1.989279
      ESP Fit Center   32 is at   3.536106 -0.825379  1.989279
      ESP Fit Center   33 is at   3.800241  2.090328  1.626216
      ESP Fit Center   34 is at   3.452997  2.325765  1.626216
      ESP Fit Center   35 is at   0.705630  1.231114  1.626216
      ESP Fit Center   36 is at   3.063260 -1.257807  1.626216
      ESP Fit Center   37 is at   3.452997 -1.102521  1.626216
      ESP Fit Center   38 is at   3.633696  2.359531  1.232271
      ESP Fit Center   39 is at   3.633696 -1.136288  1.232271
      ESP Fit Center   40 is at   3.800241  2.090328  0.018946
      ESP Fit Center   41 is at   3.851180  1.769491 -0.344116
      ESP Fit Center   42 is at   3.536106  2.048623 -0.344116
      ESP Fit Center   43 is at   3.793414  1.414432 -0.662343
      ESP Fit Center   44 is at   3.516635  1.733853 -0.662343
      ESP Fit Center   45 is at   3.406416  1.397621 -0.923505
      ESP Fit Center   46 is at   3.064258  1.656007 -0.923505
      ESP Fit Center   47 is at   0.932572 -1.245138  1.650651
      ESP Fit Center   48 is at   1.258476 -1.518604  1.650651
      ESP Fit Center   49 is at   1.658257 -1.664112  1.650651
      ESP Fit Center   50 is at   2.083695 -1.664112  1.650651
      ESP Fit Center   51 is at   2.483476 -1.518604  1.650651
      ESP Fit Center   52 is at   0.962803 -1.744311  1.405698
      ESP Fit Center   53 is at   1.343598 -1.941623  1.405698
      ESP Fit Center   54 is at   1.763506 -2.028881  1.405698
      ESP Fit Center   55 is at   2.191385 -1.999613  1.405698
      ESP Fit Center   56 is at   2.595500 -1.855991  1.405698
      ESP Fit Center   57 is at   2.945881 -1.608665  1.405698
      ESP Fit Center   58 is at   1.453347 -2.287476  1.103719
      ESP Fit Center   59 is at   1.870976 -2.334532  1.103719
      ESP Fit Center   60 is at   2.288605 -2.287476  1.103719
      ESP Fit Center   61 is at   2.685293 -2.148669  1.103719
      ESP Fit Center   62 is at   3.041147 -1.925071  1.103719
      ESP Fit Center   63 is at   3.338324 -1.627894  1.103719
      ESP Fit Center   64 is at   3.561922 -1.272040  1.103719
      ESP Fit Center   65 is at   1.457041 -2.538716  0.753889
      ESP Fit Center   66 is at   1.870976 -2.579485  0.753889
      ESP Fit Center   67 is at   2.284911 -2.538716  0.753889
      ESP Fit Center   68 is at   2.682939 -2.417976  0.753889
      ESP Fit Center   69 is at   3.049764 -2.221904  0.753889
      ESP Fit Center   70 is at   3.371289 -1.958035  0.753889
      ESP Fit Center   71 is at   3.635157 -1.636511  0.753889
      ESP Fit Center   72 is at   3.831229 -1.269686  0.753889
      ESP Fit Center   73 is at   1.658552 -2.750149  0.366838
      ESP Fit Center   74 is at   2.083401 -2.750149  0.366838
      ESP Fit Center   75 is at   2.501016 -2.672083  0.366838
      ESP Fit Center   76 is at   2.897176 -2.518610  0.366838
      ESP Fit Center   77 is at   3.258390 -2.294956  0.366838
      ESP Fit Center   78 is at   3.572357 -2.008737  0.366838
      ESP Fit Center   79 is at   3.828386 -1.669700  0.366838
      ESP Fit Center   80 is at   4.017757 -1.289390  0.366838
      ESP Fit Center   81 is at   1.452001 -2.833846 -0.045673
      ESP Fit Center   82 is at   1.870976 -2.870502 -0.045673
      ESP Fit Center   83 is at   2.289951 -2.833846 -0.045673
      ESP Fit Center   84 is at   2.696195 -2.724993 -0.045673
      ESP Fit Center   85 is at   3.077366 -2.547251 -0.045673
      ESP Fit Center   86 is at   3.421881 -2.306019 -0.045673
      ESP Fit Center   87 is at   3.719272 -2.008627 -0.045673
      ESP Fit Center   88 is at   3.960504 -1.664112 -0.045673
      ESP Fit Center   89 is at   4.138247 -1.282942 -0.045673
      ESP Fit Center   90 is at   4.247100 -0.876698 -0.045673
      ESP Fit Center   91 is at   4.320976 -0.457723 -0.471111
      ESP Fit Center   92 is at   1.153560 -2.800331 -0.471111
      ESP Fit Center   93 is at   1.559782 -2.887879 -0.471111
      ESP Fit Center   94 is at   1.974957 -2.905515 -0.471111
      ESP Fit Center   95 is at   2.387140 -2.852733 -0.471111
      ESP Fit Center   96 is at   2.784474 -2.731051 -0.471111
      ESP Fit Center   97 is at   3.155529 -2.543969 -0.471111
      ESP Fit Center   98 is at   3.489629 -2.296870 -0.471111
      ESP Fit Center   99 is at   3.777164 -1.996862 -0.471111
      ESP Fit Center  100 is at   4.009861 -1.652575 -0.471111
      ESP Fit Center  101 is at   4.181026 -1.273915 -0.471111
      ESP Fit Center  102 is at   4.285735 -0.871775 -0.471111
      ESP Fit Center  103 is at   4.283755 -0.457723 -0.896549
      ESP Fit Center  104 is at   4.247100 -0.038748 -0.896549
      ESP Fit Center  105 is at   4.138247  0.367496 -0.896549
      ESP Fit Center  106 is at   3.960504  0.748667 -0.896549
      ESP Fit Center  107 is at   3.719272  1.093182 -0.896549
      ESP Fit Center  108 is at   1.045757 -2.724993 -0.896549
      ESP Fit Center  109 is at   1.452001 -2.833846 -0.896549
      ESP Fit Center  110 is at   1.870976 -2.870502 -0.896549
      ESP Fit Center  111 is at   2.289951 -2.833846 -0.896549
      ESP Fit Center  112 is at   2.696195 -2.724993 -0.896549
      ESP Fit Center  113 is at   3.077366 -2.547251 -0.896549
      ESP Fit Center  114 is at   3.421881 -2.306019 -0.896549
      ESP Fit Center  115 is at   3.719272 -2.008627 -0.896549
      ESP Fit Center  116 is at   3.960504 -1.664112 -0.896549
      ESP Fit Center  117 is at   4.138247 -1.282942 -0.896549
      ESP Fit Center  118 is at   4.247100 -0.876698 -0.896549
      ESP Fit Center  119 is at   4.173223 -0.457723 -1.309060
      ESP Fit Center  120 is at   4.134023 -0.034686 -1.309060
      ESP Fit Center  121 is at   4.017757  0.373945 -1.309060
      ESP Fit Center  122 is at   3.828386  0.754254 -1.309060
      ESP Fit Center  123 is at   3.572357  1.093291 -1.309060
      ESP Fit Center  124 is at   3.258390  1.379510 -1.309060
      ESP Fit Center  125 is at   2.897176  1.603164 -1.309060
      ESP Fit Center  126 is at   2.501016  1.756637 -1.309060
      ESP Fit Center  127 is at   2.083401  1.834703 -1.309060
      ESP Fit Center  128 is at   0.483562 -2.294956 -1.309060
      ESP Fit Center  129 is at   0.844776 -2.518610 -1.309060
      ESP Fit Center  130 is at   1.240936 -2.672083 -1.309060
      ESP Fit Center  131 is at   1.658552 -2.750149 -1.309060
      ESP Fit Center  132 is at   2.083401 -2.750149 -1.309060
      ESP Fit Center  133 is at   2.501016 -2.672083 -1.309060
      ESP Fit Center  134 is at   2.897176 -2.518610 -1.309060
      ESP Fit Center  135 is at   3.258390 -2.294956 -1.309060
      ESP Fit Center  136 is at   3.572357 -2.008737 -1.309060
      ESP Fit Center  137 is at   3.828386 -1.669700 -1.309060
      ESP Fit Center  138 is at   4.017757 -1.289390 -1.309060
      ESP Fit Center  139 is at   4.134023 -0.880760 -1.309060
      ESP Fit Center  140 is at   3.992738 -0.457723 -1.696111
      ESP Fit Center  141 is at   3.951969 -0.043788 -1.696111
      ESP Fit Center  142 is at   3.831229  0.354240 -1.696111
      ESP Fit Center  143 is at   3.635157  0.721065 -1.696111
      ESP Fit Center  144 is at   3.371289  1.042590 -1.696111
      ESP Fit Center  145 is at   3.049764  1.306458 -1.696111
      ESP Fit Center  146 is at   2.682939  1.502530 -1.696111
      ESP Fit Center  147 is at   2.284911  1.623270 -1.696111
      ESP Fit Center  148 is at   1.870976  1.664039 -1.696111
      ESP Fit Center  149 is at   1.457041  1.623270 -1.696111
      ESP Fit Center  150 is at   0.370664 -1.958035 -1.696111
      ESP Fit Center  151 is at   0.692188 -2.221904 -1.696111
      ESP Fit Center  152 is at   1.059013 -2.417976 -1.696111
      ESP Fit Center  153 is at   1.457041 -2.538716 -1.696111
      ESP Fit Center  154 is at   1.870976 -2.579485 -1.696111
      ESP Fit Center  155 is at   2.284911 -2.538716 -1.696111
      ESP Fit Center  156 is at   2.682939 -2.417976 -1.696111
      ESP Fit Center  157 is at   3.049764 -2.221904 -1.696111
      ESP Fit Center  158 is at   3.371289 -1.958035 -1.696111
      ESP Fit Center  159 is at   3.635157 -1.636511 -1.696111
      ESP Fit Center  160 is at   3.831229 -1.269686 -1.696111
      ESP Fit Center  161 is at   3.951969 -0.871658 -1.696111
      ESP Fit Center  162 is at   3.747785 -0.457723 -2.045941
      ESP Fit Center  163 is at   3.700729 -0.040094 -2.045941
      ESP Fit Center  164 is at   3.561922  0.356594 -2.045941
      ESP Fit Center  165 is at   3.338324  0.712448 -2.045941
      ESP Fit Center  166 is at   3.041147  1.009625 -2.045941
      ESP Fit Center  167 is at   2.685293  1.233224 -2.045941
      ESP Fit Center  168 is at   2.288605  1.372031 -2.045941
      ESP Fit Center  169 is at   1.870976  1.419086 -2.045941
      ESP Fit Center  170 is at   1.453347  1.372031 -2.045941
      ESP Fit Center  171 is at   1.056659  1.233224 -2.045941
      ESP Fit Center  172 is at   0.180030 -1.272040 -2.045941
      ESP Fit Center  173 is at   0.403628 -1.627894 -2.045941
      ESP Fit Center  174 is at   0.700805 -1.925071 -2.045941
      ESP Fit Center  175 is at   1.056659 -2.148669 -2.045941
      ESP Fit Center  176 is at   1.453347 -2.287476 -2.045941
      ESP Fit Center  177 is at   1.870976 -2.334532 -2.045941
      ESP Fit Center  178 is at   2.288605 -2.287476 -2.045941
      ESP Fit Center  179 is at   2.685293 -2.148669 -2.045941
      ESP Fit Center  180 is at   3.041147 -1.925071 -2.045941
      ESP Fit Center  181 is at   3.338324 -1.627894 -2.045941
      ESP Fit Center  182 is at   3.561922 -1.272040 -2.045941
      ESP Fit Center  183 is at   3.700729 -0.875352 -2.045941
      ESP Fit Center  184 is at   3.445806 -0.457723 -2.347920
      ESP Fit Center  185 is at   3.387407 -0.032839 -2.347920
      ESP Fit Center  186 is at   3.216541  0.360533 -2.347920
      ESP Fit Center  187 is at   2.945881  0.693219 -2.347920
      ESP Fit Center  188 is at   2.595500  0.940545 -2.347920
      ESP Fit Center  189 is at   2.191385  1.084168 -2.347920
      ESP Fit Center  190 is at   1.763506  1.113436 -2.347920
      ESP Fit Center  191 is at   1.343598  1.026178 -2.347920
      ESP Fit Center  192 is at   0.962803  0.828866 -2.347920
      ESP Fit Center  193 is at   0.649363  0.536133 -2.347920
      ESP Fit Center  194 is at   0.426525  0.169691 -2.347920
      ESP Fit Center  195 is at   0.310814 -0.243284 -2.347920
      ESP Fit Center  196 is at   0.310814 -0.672162 -2.347920
      ESP Fit Center  197 is at   0.426525 -1.085137 -2.347920
      ESP Fit Center  198 is at   0.649363 -1.451579 -2.347920
      ESP Fit Center  199 is at   0.962803 -1.744311 -2.347920
      ESP Fit Center  200 is at   1.343598 -1.941623 -2.347920
      ESP Fit Center  201 is at   1.763506 -2.028881 -2.347920
      ESP Fit Center  202 is at   2.191385 -1.999613 -2.347920
      ESP Fit Center  203 is at   2.595500 -1.855991 -2.347920
      ESP Fit Center  204 is at   2.945881 -1.608665 -2.347920
      ESP Fit Center  205 is at   3.216541 -1.275979 -2.347920
      ESP Fit Center  206 is at   3.387407 -0.882607 -2.347920
      ESP Fit Center  207 is at   3.095976 -0.457723 -2.592873
      ESP Fit Center  208 is at   3.022100 -0.038748 -2.592873
      ESP Fit Center  209 is at   2.809381  0.329692 -2.592873
      ESP Fit Center  210 is at   2.483476  0.603158 -2.592873
      ESP Fit Center  211 is at   2.083695  0.748667 -2.592873
      ESP Fit Center  212 is at   1.658257  0.748667 -2.592873
      ESP Fit Center  213 is at   1.258476  0.603158 -2.592873
      ESP Fit Center  214 is at   0.932572  0.329692 -2.592873
      ESP Fit Center  215 is at   0.719853 -0.038748 -2.592873
      ESP Fit Center  216 is at   0.645976 -0.457723 -2.592873
      ESP Fit Center  217 is at   0.719853 -0.876698 -2.592873
      ESP Fit Center  218 is at   0.932572 -1.245138 -2.592873
      ESP Fit Center  219 is at   1.258476 -1.518604 -2.592873
      ESP Fit Center  220 is at   1.658257 -1.664112 -2.592873
      ESP Fit Center  221 is at   2.083695 -1.664112 -2.592873
      ESP Fit Center  222 is at   2.483476 -1.518604 -2.592873
      ESP Fit Center  223 is at   2.809381 -1.245138 -2.592873
      ESP Fit Center  224 is at   3.022100 -0.876698 -2.592873
      ESP Fit Center  225 is at   2.708925 -0.457723 -2.773358
      ESP Fit Center  226 is at   2.596662 -0.038748 -2.773358
      ESP Fit Center  227 is at   2.289951  0.267963 -2.773358
      ESP Fit Center  228 is at   1.870976  0.380227 -2.773358
      ESP Fit Center  229 is at   1.452001  0.267963 -2.773358
      ESP Fit Center  230 is at   1.145291 -0.038748 -2.773358
      ESP Fit Center  231 is at   1.033027 -0.457723 -2.773358
      ESP Fit Center  232 is at   1.145291 -0.876698 -2.773358
      ESP Fit Center  233 is at   1.452001 -1.183408 -2.773358
      ESP Fit Center  234 is at   1.870976 -1.295672 -2.773358
      ESP Fit Center  235 is at   2.289951 -1.183408 -2.773358
      ESP Fit Center  236 is at   2.596662 -0.876698 -2.773358
      ESP Fit Center  237 is at   2.296414 -0.457723 -2.883890
      ESP Fit Center  238 is at   2.083695 -0.089283 -2.883890
      ESP Fit Center  239 is at   1.658257 -0.089283 -2.883890
      ESP Fit Center  240 is at   1.445538 -0.457723 -2.883890
      ESP Fit Center  241 is at   1.658257 -0.826163 -2.883890
      ESP Fit Center  242 is at   2.083695 -0.826163 -2.883890
      ESP Fit Center  243 is at   1.870976 -0.457723 -2.921111
      ESP Fit Center  244 is at   0.126042 -0.190184  1.879808
      ESP Fit Center  245 is at   0.535732 -0.190184  1.839457
      ESP Fit Center  246 is at   0.330887  0.164618  1.839457
      ESP Fit Center  247 is at  -0.078803  0.164618  1.839457
      ESP Fit Center  248 is at   0.330887 -0.544986  1.839457
      ESP Fit Center  249 is at   0.126042  0.613451  1.719955
      ESP Fit Center  250 is at  -0.275776  0.505784  1.719955
      ESP Fit Center  251 is at  -0.569927  0.211633  1.719955
      ESP Fit Center  252 is at  -1.358882 -0.190184 -1.705116
      ESP Fit Center  253 is at  -1.020790 -0.404564 -1.966278
      ESP Fit Center  254 is at  -0.865904 -0.804371 -1.966278
      ESP Fit Center  255 is at  -0.193240 -1.312344 -1.966278
      ESP Fit Center  256 is at  -0.677593 -0.190184 -2.160339
      ESP Fit Center  257 is at  -0.569927 -0.592002 -2.160339
      ESP Fit Center  258 is at  -0.275776 -0.886153 -2.160339
      ESP Fit Center  259 is at   0.126042 -0.993819 -2.160339
      ESP Fit Center  260 is at   0.330887  0.164618 -2.279841
      ESP Fit Center  261 is at  -0.078803  0.164618 -2.279841
      ESP Fit Center  262 is at  -0.283648 -0.190184 -2.279841
      ESP Fit Center  263 is at  -0.078803 -0.544986 -2.279841
      ESP Fit Center  264 is at   0.126042 -0.190184 -2.320192
      ESP Fit Center  265 is at  -0.406804  1.093209  1.758577
      ESP Fit Center  266 is at   0.002885  1.093209  1.718226
      ESP Fit Center  267 is at  -0.201960  1.448011  1.718226
      ESP Fit Center  268 is at  -0.611649  1.448011  1.718226
      ESP Fit Center  269 is at  -0.816494  1.093209  1.718226
      ESP Fit Center  270 is at  -0.611649  0.738408  1.718226
      ESP Fit Center  271 is at  -0.201960  0.738408  1.718226
      ESP Fit Center  272 is at   0.396831  1.093209  1.598724
      ESP Fit Center  273 is at   0.289164  1.495027  1.598724
      ESP Fit Center  274 is at  -0.004987  1.789178  1.598724
      ESP Fit Center  275 is at  -0.406804  1.896845  1.598724
      ESP Fit Center  276 is at  -0.808622  0.397241  1.598724
      ESP Fit Center  277 is at   0.681109  1.514669  1.404663
      ESP Fit Center  278 is at   0.455395  1.879208  1.404663
      ESP Fit Center  279 is at   0.113237  2.137594  1.404663
      ESP Fit Center  280 is at  -0.299155  2.254930  1.404663
      ESP Fit Center  281 is at   0.565614  2.215440  1.143502
      ESP Fit Center  282 is at   0.210055  2.443944  1.143502
      ESP Fit Center  283 is at  -0.195478  2.563019  1.143502
      ESP Fit Center  284 is at  -0.618131  2.563019  1.143502
      ESP Fit Center  285 is at  -0.196337  2.826565  0.825275
      ESP Fit Center  286 is at  -0.617272  2.826565  0.825275
      ESP Fit Center  287 is at  -1.025975  2.725828 -1.508120
      ESP Fit Center  288 is at  -1.023664  2.443944 -1.826347
      ESP Fit Center  289 is at  -1.379223 -0.029021 -1.826347
      ESP Fit Center  290 is at   0.759893  1.093209 -2.087509
      ESP Fit Center  291 is at  -0.726086  2.215369 -2.087509
      ESP Fit Center  292 is at  -1.109897  2.024254 -2.087509
      ESP Fit Center  293 is at  -1.398751  0.479022 -2.087509
      ESP Fit Center  294 is at  -1.109897  0.162165 -2.087509
      ESP Fit Center  295 is at   0.396831  1.093209 -2.281570
      ESP Fit Center  296 is at   0.289164  1.495027 -2.281570
      ESP Fit Center  297 is at  -0.004987  1.789178 -2.281570
      ESP Fit Center  298 is at  -0.406804  1.896845 -2.281570
      ESP Fit Center  299 is at  -0.808622  1.789178 -2.281570
      ESP Fit Center  300 is at  -1.102773  1.495027 -2.281570
      ESP Fit Center  301 is at  -1.210440  1.093209 -2.281570
      ESP Fit Center  302 is at  -1.102773  0.691392 -2.281570
      ESP Fit Center  303 is at  -0.808622  0.397241 -2.281570
      ESP Fit Center  304 is at  -0.406804  0.289574 -2.281570
      ESP Fit Center  305 is at  -0.004987  0.397241 -2.281570
      ESP Fit Center  306 is at   0.289164  0.691392 -2.281570
      ESP Fit Center  307 is at   0.002885  1.093209 -2.401072
      ESP Fit Center  308 is at  -0.201960  1.448011 -2.401072
      ESP Fit Center  309 is at  -0.611649  1.448011 -2.401072
      ESP Fit Center  310 is at  -0.816494  1.093209 -2.401072
      ESP Fit Center  311 is at  -0.611649  0.738408 -2.401072
      ESP Fit Center  312 is at  -0.201960  0.738408 -2.401072
      ESP Fit Center  313 is at  -0.406804  1.093209 -2.441423
      ESP Fit Center  314 is at  -1.771978  1.301960  1.954155
      ESP Fit Center  315 is at  -1.362288  1.301960  1.913804
      ESP Fit Center  316 is at  -1.567133  1.656762  1.913804
      ESP Fit Center  317 is at  -1.976823  1.656762  1.913804
      ESP Fit Center  318 is at  -1.567133  0.947159  1.913804
      ESP Fit Center  319 is at  -0.968343  1.301960  1.794302
      ESP Fit Center  320 is at  -1.076009  1.703778  1.794302
      ESP Fit Center  321 is at  -1.370160  1.997929  1.794302
      ESP Fit Center  322 is at  -1.771978  2.105595  1.794302
      ESP Fit Center  323 is at  -2.173795  1.997929  1.794302
      ESP Fit Center  324 is at  -2.467946  1.703778  1.794302
      ESP Fit Center  325 is at  -1.076009  0.900143  1.794302
      ESP Fit Center  326 is at  -0.909778  2.087959  1.600241
      ESP Fit Center  327 is at  -1.251936  2.346345  1.600241
      ESP Fit Center  328 is at  -1.664329  2.463681  1.600241
      ESP Fit Center  329 is at  -2.091260  2.424120  1.600241
      ESP Fit Center  330 is at  -2.475070  2.233005  1.600241
      ESP Fit Center  331 is at  -2.763924  1.916147  1.600241
      ESP Fit Center  332 is at  -0.799559  2.424191  1.339079
      ESP Fit Center  333 is at  -1.155118  2.652695  1.339079
      ESP Fit Center  334 is at  -1.560651  2.771770  1.339079
      ESP Fit Center  335 is at  -2.744396  2.424191  1.339079
      ESP Fit Center  336 is at  -3.021176  2.104771  1.339079
      ESP Fit Center  337 is at  -0.780088  2.738961  1.020853
      ESP Fit Center  338 is at  -1.152807  2.934579  1.020853
      ESP Fit Center  339 is at  -3.318060  2.113407  1.020853
      ESP Fit Center  340 is at  -0.863197  3.016104  0.657790
      ESP Fit Center  341 is at  -3.467326  1.719826 -1.312542
      ESP Fit Center  342 is at  -1.155118  2.652695 -1.630769
      ESP Fit Center  343 is at  -3.196752  1.720312 -1.630769
      ESP Fit Center  344 is at  -3.256902  1.301960 -1.630769
      ESP Fit Center  345 is at  -1.560651 -0.167850 -1.630769
      ESP Fit Center  346 is at  -1.251936  2.346345 -1.891931
      ESP Fit Center  347 is at  -1.664329  2.463681 -1.891931
      ESP Fit Center  348 is at  -2.763924  1.916147 -1.891931
      ESP Fit Center  349 is at  -2.918810  1.516340 -1.891931
      ESP Fit Center  350 is at  -2.918810  1.087580 -1.891931
      ESP Fit Center  351 is at  -2.763924  0.687773 -1.891931
      ESP Fit Center  352 is at  -2.091260  0.179801 -1.891931
      ESP Fit Center  353 is at  -1.664329  0.140240 -1.891931
      ESP Fit Center  354 is at  -1.370160  1.997929 -2.085992
      ESP Fit Center  355 is at  -1.771978  2.105595 -2.085992
      ESP Fit Center  356 is at  -2.173795  1.997929 -2.085992
      ESP Fit Center  357 is at  -2.467946  1.703778 -2.085992
      ESP Fit Center  358 is at  -2.575613  1.301960 -2.085992
      ESP Fit Center  359 is at  -2.467946  0.900143 -2.085992
      ESP Fit Center  360 is at  -2.173795  0.605992 -2.085992
      ESP Fit Center  361 is at  -1.771978  0.498325 -2.085992
      ESP Fit Center  362 is at  -1.362288  1.301960 -2.205494
      ESP Fit Center  363 is at  -1.567133  1.656762 -2.205494
      ESP Fit Center  364 is at  -1.976823  1.656762 -2.205494
      ESP Fit Center  365 is at  -2.181667  1.301960 -2.205494
      ESP Fit Center  366 is at  -1.976823  0.947159 -2.205494
      ESP Fit Center  367 is at  -1.567133  0.947159 -2.205494
      ESP Fit Center  368 is at  -1.771978  1.301960 -2.245845
      ESP Fit Center  369 is at  -2.604058  0.228704  2.271097
      ESP Fit Center  370 is at  -2.194368  0.228704  2.230747
      ESP Fit Center  371 is at  -2.399213  0.583505  2.230747
      ESP Fit Center  372 is at  -2.808903  0.583505  2.230747
      ESP Fit Center  373 is at  -3.013747  0.228704  2.230747
      ESP Fit Center  374 is at  -2.808903 -0.126098  2.230747
      ESP Fit Center  375 is at  -2.399213 -0.126098  2.230747
      ESP Fit Center  376 is at  -1.800423  0.228704  2.111244
      ESP Fit Center  377 is at  -1.908089  0.630521  2.111244
      ESP Fit Center  378 is at  -2.202240  0.924672  2.111244
      ESP Fit Center  379 is at  -2.604058  1.032339  2.111244
      ESP Fit Center  380 is at  -3.005875  0.924672  2.111244
      ESP Fit Center  381 is at  -3.300026  0.630521  2.111244
      ESP Fit Center  382 is at  -3.407693  0.228704  2.111244
      ESP Fit Center  383 is at  -3.300026 -0.173114  2.111244
      ESP Fit Center  384 is at  -3.005875 -0.467265  2.111244
      ESP Fit Center  385 is at  -1.437360  0.228704  1.917184
      ESP Fit Center  386 is at  -1.516145  0.650163  1.917184
      ESP Fit Center  387 is at  -2.496408  1.390424  1.917184
      ESP Fit Center  388 is at  -2.923340  1.350863  1.917184
      ESP Fit Center  389 is at  -3.307150  1.159748  1.917184
      ESP Fit Center  390 is at  -3.596004 -0.385483  1.917184
      ESP Fit Center  391 is at  -1.119133  0.228704  1.656022
      ESP Fit Center  392 is at  -2.815384  1.698514  1.656022
      ESP Fit Center  393 is at  -3.220918  1.579438  1.656022
      ESP Fit Center  394 is at  -3.223228  1.861323  1.337795
      ESP Fit Center  395 is at  -3.911022 -0.929166  1.337795
      ESP Fit Center  396 is at  -4.166833 -1.112895 -0.238592
      ESP Fit Center  397 is at  -4.012596 -1.105534 -0.632538
      ESP Fit Center  398 is at  -4.150140 -0.582743 -0.995600
      ESP Fit Center  399 is at  -3.911022 -0.929166 -0.995600
      ESP Fit Center  400 is at  -3.576476  1.350935 -1.313827
      ESP Fit Center  401 is at  -3.853255  1.031514 -1.313827
      ESP Fit Center  402 is at  -4.028832  0.647055 -1.313827
      ESP Fit Center  403 is at  -4.088982  0.228704 -1.313827
      ESP Fit Center  404 is at  -4.028832 -0.189648 -1.313827
      ESP Fit Center  405 is at  -3.853255 -0.574107 -1.313827
      ESP Fit Center  406 is at  -3.576476 -0.893527 -1.313827
      ESP Fit Center  407 is at  -3.307150  1.159748 -1.574989
      ESP Fit Center  408 is at  -3.596004  0.842891 -1.574989
      ESP Fit Center  409 is at  -3.750890  0.443084 -1.574989
      ESP Fit Center  410 is at  -3.750890  0.014324 -1.574989
      ESP Fit Center  411 is at  -3.596004 -0.385483 -1.574989
      ESP Fit Center  412 is at  -3.307150 -0.702341 -1.574989
      ESP Fit Center  413 is at  -3.300026  0.630521 -1.769050
      ESP Fit Center  414 is at  -3.407693  0.228704 -1.769050
      ESP Fit Center  415 is at  -3.300026 -0.173114 -1.769050
      ESP Fit Center  416 is at  -3.005875 -0.467265 -1.769050
      ESP Fit Center  417 is at  -2.604058 -0.574931 -1.769050
      ESP Fit Center  418 is at  -2.202240 -0.467265 -1.769050
      ESP Fit Center  419 is at  -1.908089 -0.173114 -1.769050
      ESP Fit Center  420 is at  -2.808903  0.583505 -1.888552
      ESP Fit Center  421 is at  -3.013747  0.228704 -1.888552
      ESP Fit Center  422 is at  -2.808903 -0.126098 -1.888552
      ESP Fit Center  423 is at  -2.399213 -0.126098 -1.888552
      ESP Fit Center  424 is at  -2.604058  0.228704 -1.928903
      ESP Fit Center  425 is at  -2.070231 -1.054854  2.392219
      ESP Fit Center  426 is at  -1.660541 -1.054854  2.351868
      ESP Fit Center  427 is at  -1.865386 -0.700052  2.351868
      ESP Fit Center  428 is at  -2.275076 -0.700052  2.351868
      ESP Fit Center  429 is at  -2.479921 -1.054854  2.351868
      ESP Fit Center  430 is at  -2.275076 -1.409656  2.351868
      ESP Fit Center  431 is at  -1.865386 -1.409656  2.351868
      ESP Fit Center  432 is at  -1.266596 -1.054854  2.232366
      ESP Fit Center  433 is at  -1.374263 -0.653036  2.232366
      ESP Fit Center  434 is at  -1.668413 -0.358886  2.232366
      ESP Fit Center  435 is at  -2.070231 -0.251219  2.232366
      ESP Fit Center  436 is at  -2.472049 -0.358886  2.232366
      ESP Fit Center  437 is at  -2.766200 -0.653036  2.232366
      ESP Fit Center  438 is at  -2.873866 -1.054854  2.232366
      ESP Fit Center  439 is at  -2.766200 -1.456672  2.232366
      ESP Fit Center  440 is at  -2.472049 -1.750823  2.232366
      ESP Fit Center  441 is at  -2.070231 -1.858489  2.232366
      ESP Fit Center  442 is at  -1.668413 -1.750823  2.232366
      ESP Fit Center  443 is at  -1.374263 -1.456672  2.232366
      ESP Fit Center  444 is at  -1.208031 -0.268855  2.038305
      ESP Fit Center  445 is at  -1.550189 -0.010469  2.038305
      ESP Fit Center  446 is at  -3.217063 -0.840474  2.038305
      ESP Fit Center  447 is at  -3.217063 -1.269234  2.038305
      ESP Fit Center  448 is at  -1.962582 -2.216575  2.038305
      ESP Fit Center  449 is at  -1.550189 -2.099239  2.038305
      ESP Fit Center  450 is at  -1.097813  0.067377  1.777143
      ESP Fit Center  451 is at  -3.555155 -1.054854  1.777143
      ESP Fit Center  452 is at  -1.453371 -2.405589  1.777143
      ESP Fit Center  453 is at  -1.451060 -2.687473  1.458917
      ESP Fit Center  454 is at  -3.999005 -1.264621 -0.511416
      ESP Fit Center  455 is at  -1.965194 -2.992156 -0.511416
      ESP Fit Center  456 is at  -3.765579 -1.472720 -0.874478
      ESP Fit Center  457 is at  -2.280699 -2.788209 -0.874478
      ESP Fit Center  458 is at  -1.859764 -2.788209 -0.874478
      ESP Fit Center  459 is at  -3.555155 -1.054854 -1.192705
      ESP Fit Center  460 is at  -3.495005 -1.473206 -1.192705
      ESP Fit Center  461 is at  -3.319429 -1.857665 -1.192705
      ESP Fit Center  462 is at  -3.042650 -2.177085 -1.192705
      ESP Fit Center  463 is at  -2.687091 -2.405589 -1.192705
      ESP Fit Center  464 is at  -2.281558 -2.524664 -1.192705
      ESP Fit Center  465 is at  -1.858904 -2.524664 -1.192705
      ESP Fit Center  466 is at  -3.217063 -1.269234 -1.453867
      ESP Fit Center  467 is at  -3.062177 -1.669041 -1.453867
      ESP Fit Center  468 is at  -2.773323 -1.985899 -1.453867
      ESP Fit Center  469 is at  -2.389513 -2.177014 -1.453867
      ESP Fit Center  470 is at  -1.962582 -2.216575 -1.453867
      ESP Fit Center  471 is at  -1.668413 -0.358886 -1.647928
      ESP Fit Center  472 is at  -2.873866 -1.054854 -1.647928
      ESP Fit Center  473 is at  -2.766200 -1.456672 -1.647928
      ESP Fit Center  474 is at  -2.472049 -1.750823 -1.647928
      ESP Fit Center  475 is at  -2.070231 -1.858489 -1.647928
      ESP Fit Center  476 is at  -1.660541 -1.054854 -1.767430
      ESP Fit Center  477 is at  -1.865386 -0.700052 -1.767430
      ESP Fit Center  478 is at  -2.275076 -0.700052 -1.767430
      ESP Fit Center  479 is at  -2.479921 -1.054854 -1.767430
      ESP Fit Center  480 is at  -2.275076 -1.409656 -1.767430
      ESP Fit Center  481 is at  -1.865386 -1.409656 -1.767430
      ESP Fit Center  482 is at  -2.070231 -1.054854 -1.807781
      ESP Fit Center  483 is at  -0.705058 -1.263605  2.196641
      ESP Fit Center  484 is at  -0.295368 -1.263605  2.156290
      ESP Fit Center  485 is at  -0.500213 -0.908803  2.156290
      ESP Fit Center  486 is at  -0.909903 -0.908803  2.156290
      ESP Fit Center  487 is at  -1.114747 -1.263605  2.156290
      ESP Fit Center  488 is at  -0.909903 -1.618407  2.156290
      ESP Fit Center  489 is at  -0.500213 -1.618407  2.156290
      ESP Fit Center  490 is at   0.098577 -1.263605  2.036788
      ESP Fit Center  491 is at  -0.009089 -0.861787  2.036788
      ESP Fit Center  492 is at  -0.303240 -0.567636  2.036788
      ESP Fit Center  493 is at  -0.705058 -0.459970  2.036788
      ESP Fit Center  494 is at  -1.106875 -1.959573  2.036788
      ESP Fit Center  495 is at  -0.705058 -2.067240  2.036788
      ESP Fit Center  496 is at  -0.303240 -1.959573  2.036788
      ESP Fit Center  497 is at  -0.009089 -1.665423  2.036788
      ESP Fit Center  498 is at   0.461640 -1.263605  1.842727
      ESP Fit Center  499 is at   0.382855 -0.842145  1.842727
      ESP Fit Center  500 is at  -0.597408 -0.101884  1.842727
      ESP Fit Center  501 is at  -1.024340 -2.385765  1.842727
      ESP Fit Center  502 is at   0.157142 -2.049604  1.842727
      ESP Fit Center  503 is at   0.382855 -1.685065  1.842727
      ESP Fit Center  504 is at   0.779867 -1.263605  1.581565
      ESP Fit Center  505 is at  -0.916384  0.206205  1.581565
      ESP Fit Center  506 is at  -1.321918 -2.614340  1.581565
      ESP Fit Center  507 is at   0.719717 -1.681956  1.581565
      ESP Fit Center  508 is at  -1.696948 -2.700606 -1.070056
      ESP Fit Center  509 is at  -1.324228 -2.896224 -1.070056
      ESP Fit Center  510 is at  -1.677476 -2.385836 -1.388283
      ESP Fit Center  511 is at  -1.321918 -2.614340 -1.388283
      ESP Fit Center  512 is at  -0.916384 -2.733415 -1.388283
      ESP Fit Center  513 is at   0.267361 -2.385836 -1.388283
      ESP Fit Center  514 is at  -1.408150 -0.332560 -1.649445
      ESP Fit Center  515 is at  -1.697004 -1.877792 -1.649445
      ESP Fit Center  516 is at  -1.408150 -2.194650 -1.649445
      ESP Fit Center  517 is at  -1.024340 -2.385765 -1.649445
      ESP Fit Center  518 is at  -0.597408 -2.425326 -1.649445
      ESP Fit Center  519 is at  -0.185016 -2.307990 -1.649445
      ESP Fit Center  520 is at   0.157142 -2.049604 -1.649445
      ESP Fit Center  521 is at  -1.401026 -0.861787 -1.843506
      ESP Fit Center  522 is at  -1.508693 -1.263605 -1.843506
      ESP Fit Center  523 is at  -1.401026 -1.665423 -1.843506
      ESP Fit Center  524 is at  -1.106875 -1.959573 -1.843506
      ESP Fit Center  525 is at  -0.705058 -2.067240 -1.843506
      ESP Fit Center  526 is at  -0.303240 -1.959573 -1.843506
      ESP Fit Center  527 is at  -0.009089 -1.665423 -1.843506
      ESP Fit Center  528 is at  -0.909903 -0.908803 -1.963008
      ESP Fit Center  529 is at  -1.114747 -1.263605 -1.963008
      ESP Fit Center  530 is at  -0.909903 -1.618407 -1.963008
      ESP Fit Center  531 is at  -0.500213 -1.618407 -1.963008
      ESP Fit Center  532 is at  -0.705058 -1.263605 -2.003359
      ESP Fit Center  533 is at   4.070826  0.566693  2.433571
      ESP Fit Center  534 is at   3.853418  0.943255  2.433571
      ESP Fit Center  535 is at   3.853418  0.190132  2.433571
      ESP Fit Center  536 is at   4.476010  0.566693  2.265738
      ESP Fit Center  537 is at   4.363471  0.986693  2.265738
      ESP Fit Center  538 is at   4.056010  1.294155  2.265738
      ESP Fit Center  539 is at   4.056010 -0.160768  2.265738
      ESP Fit Center  540 is at   4.363471  0.146693  2.265738
      ESP Fit Center  541 is at   4.823949  0.566693  1.998755
      ESP Fit Center  542 is at   4.743731  0.995826  1.998755
      ESP Fit Center  543 is at   4.513908  1.367003  1.998755
      ESP Fit Center  544 is at   4.165520  1.630093  1.998755
      ESP Fit Center  545 is at   4.165520 -0.496706  1.998755
      ESP Fit Center  546 is at   4.513908 -0.233616  1.998755
      ESP Fit Center  547 is at   4.743731  0.137560  1.998755
      ESP Fit Center  548 is at   5.090933  0.566693  1.650815
      ESP Fit Center  549 is at   5.026295  0.995539  1.650815
      ESP Fit Center  550 is at   4.838124  1.386280  1.650815
      ESP Fit Center  551 is at   4.543140  1.704198  1.650815
      ESP Fit Center  552 is at   4.167553  1.921043  1.650815
      ESP Fit Center  553 is at   4.167553 -0.787656  1.650815
      ESP Fit Center  554 is at   4.543140 -0.570811  1.650815
      ESP Fit Center  555 is at   4.838124 -0.252894  1.650815
      ESP Fit Center  556 is at   5.026295  0.137847  1.650815
      ESP Fit Center  557 is at   5.258765  0.566693  1.245631
      ESP Fit Center  558 is at   5.203471  0.986693  1.245631
      ESP Fit Center  559 is at   5.041357  1.378071  1.245631
      ESP Fit Center  560 is at   4.783471  1.714155  1.245631
      ESP Fit Center  561 is at   4.447388  1.972041  1.245631
      ESP Fit Center  562 is at   4.056010  2.134155  1.245631
      ESP Fit Center  563 is at   4.056010 -1.000768  1.245631
      ESP Fit Center  564 is at   4.447388 -0.838654  1.245631
      ESP Fit Center  565 is at   4.783471 -0.580768  1.245631
      ESP Fit Center  566 is at   5.041357 -0.244684  1.245631
      ESP Fit Center  567 is at   5.203471  0.146693  1.245631
      ESP Fit Center  568 is at   5.316010  0.566693  0.810815
      ESP Fit Center  569 is at   5.263230  0.984492  0.810815
      ESP Fit Center  570 is at   5.108205  1.376039  0.810815
      ESP Fit Center  571 is at   4.860677  1.716732  0.810815
      ESP Fit Center  572 is at   4.536199  1.985164  0.810815
      ESP Fit Center  573 is at   4.155159  2.164468  0.810815
      ESP Fit Center  574 is at   4.155159 -1.031082  0.810815
      ESP Fit Center  575 is at   4.536199 -0.851778  0.810815
      ESP Fit Center  576 is at   4.860677 -0.583346  0.810815
      ESP Fit Center  577 is at   5.108205 -0.242653  0.810815
      ESP Fit Center  578 is at   5.263230  0.148894  0.810815
      ESP Fit Center  579 is at   5.258765  0.566693  0.375999
      ESP Fit Center  580 is at   5.203471  0.986693  0.375999
      ESP Fit Center  581 is at   5.041357  1.378071  0.375999
      ESP Fit Center  582 is at   4.783471  1.714155  0.375999
      ESP Fit Center  583 is at   4.447388  1.972041  0.375999
      ESP Fit Center  584 is at   4.056010  2.134155  0.375999
      ESP Fit Center  585 is at   4.447388 -0.838654  0.375999
      ESP Fit Center  586 is at   4.783471 -0.580768  0.375999
      ESP Fit Center  587 is at   5.041357 -0.244684  0.375999
      ESP Fit Center  588 is at   5.203471  0.146693  0.375999
      ESP Fit Center  589 is at   5.090933  0.566693 -0.029185
      ESP Fit Center  590 is at   5.026295  0.995539 -0.029185
      ESP Fit Center  591 is at   4.838124  1.386280 -0.029185
      ESP Fit Center  592 is at   4.543140  1.704198 -0.029185
      ESP Fit Center  593 is at   4.167553  1.921043 -0.029185
      ESP Fit Center  594 is at   4.543140 -0.570811 -0.029185
      ESP Fit Center  595 is at   4.838124 -0.252894 -0.029185
      ESP Fit Center  596 is at   5.026295  0.137847 -0.029185
      ESP Fit Center  597 is at   4.823949  0.566693 -0.377124
      ESP Fit Center  598 is at   4.743731  0.995826 -0.377124
      ESP Fit Center  599 is at   4.513908  1.367003 -0.377124
      ESP Fit Center  600 is at   4.165520  1.630093 -0.377124
      ESP Fit Center  601 is at   4.513908 -0.233616 -0.377124
      ESP Fit Center  602 is at   4.743731  0.137560 -0.377124
      ESP Fit Center  603 is at   4.476010  0.566693 -0.644107
      ESP Fit Center  604 is at   4.363471  0.986693 -0.644107
      ESP Fit Center  605 is at   4.056010  1.294155 -0.644107
      ESP Fit Center  606 is at   4.363471  0.146693 -0.644107
      ESP Fit Center  607 is at   4.070826  0.566693 -0.811940
      ESP Fit Center  608 is at   3.853418  0.943255 -0.811940
      ESP Fit Center  609 is at   2.184732  0.281550  3.480495
      ESP Fit Center  610 is at   2.619548  0.281550  3.423250
      ESP Fit Center  611 is at   2.402140  0.658112  3.423250
      ESP Fit Center  612 is at   1.967324  0.658112  3.423250
      ESP Fit Center  613 is at   1.749916  0.281550  3.423250
      ESP Fit Center  614 is at   1.967324 -0.095011  3.423250
      ESP Fit Center  615 is at   2.402140 -0.095011  3.423250
      ESP Fit Center  616 is at   3.024732  0.281550  3.255417
      ESP Fit Center  617 is at   2.912193  0.701550  3.255417
      ESP Fit Center  618 is at   2.604732  1.009012  3.255417
      ESP Fit Center  619 is at   2.184732  1.121550  3.255417
      ESP Fit Center  620 is at   1.764732  1.009012  3.255417
      ESP Fit Center  621 is at   1.457271  0.701550  3.255417
      ESP Fit Center  622 is at   1.344732  0.281550  3.255417
      ESP Fit Center  623 is at   1.457271 -0.138450  3.255417
      ESP Fit Center  624 is at   1.764732 -0.445911  3.255417
      ESP Fit Center  625 is at   2.184732 -0.558450  3.255417
      ESP Fit Center  626 is at   2.604732 -0.445911  3.255417
      ESP Fit Center  627 is at   2.912193 -0.138450  3.255417
      ESP Fit Center  628 is at   3.372671  0.281550  2.988434
      ESP Fit Center  629 is at   3.292452  0.710684  2.988434
      ESP Fit Center  630 is at   3.062630  1.081860  2.988434
      ESP Fit Center  631 is at   2.714242  1.344950  2.988434
      ESP Fit Center  632 is at   2.294341  1.464422  2.988434
      ESP Fit Center  633 is at   1.859637  1.424141  2.988434
      ESP Fit Center  634 is at   1.468838  1.229547  2.988434
      ESP Fit Center  635 is at   1.174725  0.906920  2.988434
      ESP Fit Center  636 is at   1.017019  0.499834  2.988434
      ESP Fit Center  637 is at   1.017019  0.063267  2.988434
      ESP Fit Center  638 is at   1.174725 -0.343819  2.988434
      ESP Fit Center  639 is at   1.468838 -0.666446  2.988434
      ESP Fit Center  640 is at   1.859637 -0.861040  2.988434
      ESP Fit Center  641 is at   2.294341 -0.901321  2.988434
      ESP Fit Center  642 is at   2.714242 -0.781849  2.988434
      ESP Fit Center  643 is at   3.062630 -0.518759  2.988434
      ESP Fit Center  644 is at   3.292452 -0.147583  2.988434
      ESP Fit Center  645 is at   3.639655  0.281550  2.640495
      ESP Fit Center  646 is at   2.293458  1.732405  2.640495
      ESP Fit Center  647 is at   1.860981  1.699995  2.640495
      ESP Fit Center  648 is at   1.457271  1.541550  2.640495
      ESP Fit Center  649 is at   1.118198  1.271149  2.640495
      ESP Fit Center  650 is at   0.873892  0.912818  2.640495
      ESP Fit Center  651 is at   0.746059  0.498395  2.640495
      ESP Fit Center  652 is at   0.746059  0.064705  2.640495
      ESP Fit Center  653 is at   0.873892 -0.349717  2.640495
      ESP Fit Center  654 is at   1.118198 -0.708048  2.640495
      ESP Fit Center  655 is at   1.457271 -0.978450  2.640495
      ESP Fit Center  656 is at   1.860981 -1.136894  2.640495
      ESP Fit Center  657 is at   2.293458 -1.169304  2.640495
      ESP Fit Center  658 is at   2.716275 -1.072799  2.640495
      ESP Fit Center  659 is at   3.091861 -0.855954  2.640495
      ESP Fit Center  660 is at   3.386845 -0.538037  2.640495
      ESP Fit Center  661 is at   3.575016 -0.147296  2.640495
      ESP Fit Center  662 is at   1.373354  1.686898  2.235311
      ESP Fit Center  663 is at   1.037271  1.429012  2.235311
      ESP Fit Center  664 is at   0.779384  1.092928  2.235311
      ESP Fit Center  665 is at   0.617271  0.701550  2.235311
      ESP Fit Center  666 is at   0.561976  0.281550  2.235311
      ESP Fit Center  667 is at   0.617271 -0.138450  2.235311
      ESP Fit Center  668 is at   0.779384 -0.529827  2.235311
      ESP Fit Center  669 is at   1.037271 -0.865911  2.235311
      ESP Fit Center  670 is at   1.373354 -1.123797  2.235311
      ESP Fit Center  671 is at   1.764732 -1.285911  2.235311
      ESP Fit Center  672 is at   2.184732 -1.341205  2.235311
      ESP Fit Center  673 is at   2.604732 -1.285911  2.235311
      ESP Fit Center  674 is at   2.996110 -1.123797  2.235311
      ESP Fit Center  675 is at   3.332193 -0.865911  2.235311
      ESP Fit Center  676 is at   0.622707  0.900000  1.800495
      ESP Fit Center  677 is at   0.517979  0.492110  1.800495
      ESP Fit Center  678 is at   0.825583 -0.705929  1.800495
      ESP Fit Center  679 is at   1.113860 -1.012912  1.800495
      ESP Fit Center  680 is at   2.290220 -1.395134  1.800495
      ESP Fit Center  681 is at   2.703880 -1.316224  1.800495
      ESP Fit Center  682 is at   2.647108  2.370634  2.109365
      ESP Fit Center  683 is at   2.227108  2.483172  2.109365
      ESP Fit Center  684 is at   1.807108  2.370634  2.109365
      ESP Fit Center  685 is at   1.499646  2.063172  2.109365
      ESP Fit Center  686 is at   3.105005  2.443482  1.842382
      ESP Fit Center  687 is at   2.756618  2.706572  1.842382
[...]
 4858 Fit       0.003384
 4859 Fit       0.002739
 4860 Fit       0.001833
 4861 Fit       0.000658
 4862 Fit       0.000651
 4863 Fit       0.001829
 4864 Fit       0.002736
 4865 Fit       0.003382
 4866 Fit       0.003770
 4867 Fit       0.002788
 4868 Fit       0.002628
 4869 Fit       0.002145
 4870 Fit       0.001324
 4871 Fit       0.000134
 4872 Fit       0.000129
 4873 Fit       0.001321
 4874 Fit       0.002144
 4875 Fit       0.002628
 4876 Fit       0.001353
 4877 Fit       0.001125
 4878 Fit       0.000426
 4879 Fit       0.000424
 4880 Fit       0.001124
 4881 Fit       0.004407
 4882 Fit       0.004692
 4883 Fit       0.003967
 4884 Fit       0.004456
 4885 Fit       0.004756
 4886 Fit       0.003236
 4887 Fit       0.003306
 4888 Fit       0.003880
 4889 Fit       0.004537
 4890 Fit       0.004938
 4891 Fit       0.005040
 4892 Fit       0.004978
 4893 Fit       0.002166
 4894 Fit       0.002339
 4895 Fit       0.003016
 4896 Fit       0.003880
 4897 Fit       0.004615
 4898 Fit       0.005066
 4899 Fit       0.005239
 4900 Fit       0.005226
 4901 Fit       0.005137
 4902 Fit       0.005061
 4903 Fit       0.000721
 4904 Fit       0.001324
 4905 Fit       0.002365
 4906 Fit       0.003495
 4907 Fit       0.004428
 4908 Fit       0.005034
 4909 Fit       0.005325
 4910 Fit       0.005383
 4911 Fit       0.005307
 4912 Fit       0.005194
 4913 Fit       0.005120
 4914 Fit      -0.001348
 4915 Fit      -0.000531
 4916 Fit       0.000862
 4917 Fit       0.002415
 4918 Fit       0.003756
 4919 Fit       0.004694
 4920 Fit       0.005219
 4921 Fit       0.005418
 4922 Fit       0.005404
 4923 Fit       0.005281
 4924 Fit       0.005138
 4925 Fit       0.005051
 4926 Fit       0.005078
 4927 Fit      -0.004270
 4928 Fit      -0.003187
 4929 Fit      -0.001323
 4930 Fit       0.000817
 4931 Fit       0.002720
 4932 Fit       0.004104
 4933 Fit       0.004932
 4934 Fit       0.005311
 4935 Fit       0.005385
 4936 Fit       0.005283
 4937 Fit       0.005104
 4938 Fit       0.004929
 4939 Fit       0.004827
 4940 Fit       0.004859
 4941 Fit       0.003679
 4942 Fit       0.004770
 4943 Fit       0.005219
 4944 Fit       0.005264
 4945 Fit       0.005095
 4946 Fit       0.004844
 4947 Fit       0.004600
 4948 Fit       0.004436
 4949 Fit       0.004417
 4950 Fit       0.004713
 4951 Fit       0.005179
 4952 Fit       0.005114
 4953 Fit       0.004806
 4954 Fit       0.004429
 4955 Fit       0.004084
 4956 Fit       0.003837
 4957 Fit       0.003746
 4958 Fit       0.003883
 4959 Fit       0.005178
 4960 Fit       0.004610
 4961 Fit       0.003981
 4962 Fit       0.003430
 4963 Fit       0.003022
 4964 Fit       0.002800
 4965 Fit       0.002813
 4966 Fit       0.004164
 4967 Fit       0.003033
 4968 Fit       0.002180
 4969 Fit       0.001623
 4970 Fit       0.001368
 4971 Fit      -0.000351
 4972 Fit      -0.000723
 4973 Fit       0.004406
 4974 Fit       0.004692
 4975 Fit       0.004756
 4976 Fit       0.004455
 4977 Fit       0.003966
 4978 Fit       0.004978
 4979 Fit       0.005040
 4980 Fit       0.004938
 4981 Fit       0.004537
 4982 Fit       0.003879
 4983 Fit       0.003305
 4984 Fit       0.003235
 4985 Fit       0.005063
 4986 Fit       0.005139
 4987 Fit       0.005227
 4988 Fit       0.005240
 4989 Fit       0.005067
 4990 Fit       0.004615
 4991 Fit       0.003879
 4992 Fit       0.003015
 4993 Fit       0.002337
 4994 Fit       0.002166
 4995 Fit       0.005122
 4996 Fit       0.005197
 4997 Fit       0.005310
 4998 Fit       0.005385
 4999 Fit       0.005328
 5000 Fit       0.005036
 5001 Fit       0.004429
 5002 Fit       0.003496
 5003 Fit       0.002365
 5004 Fit       0.001323
 5005 Fit       0.000719
 5006 Fit       0.005080
 5007 Fit       0.005054
 5008 Fit       0.005142
 5009 Fit       0.005285
 5010 Fit       0.005408
 5011 Fit       0.005422
 5012 Fit       0.005223
 5013 Fit       0.004698
 5014 Fit       0.003759
 5015 Fit       0.002417
 5016 Fit       0.000862
 5017 Fit      -0.000532
 5018 Fit      -0.001351
 5019 Fit       0.004862
 5020 Fit       0.004831
 5021 Fit       0.004935
 5022 Fit       0.005110
 5023 Fit       0.005289
 5024 Fit       0.005392
 5025 Fit       0.005317
 5026 Fit       0.004938
 5027 Fit       0.004109
 5028 Fit       0.002725
 5029 Fit       0.000821
 5030 Fit      -0.001321
 5031 Fit      -0.003188
 5032 Fit      -0.004273
 5033 Fit       0.004423
 5034 Fit       0.004443
 5035 Fit       0.004609
 5036 Fit       0.004852
 5037 Fit       0.005104
 5038 Fit       0.005272
 5039 Fit       0.005227
 5040 Fit       0.004779
 5041 Fit       0.003687
 5042 Fit       0.003888
 5043 Fit       0.003754
 5044 Fit       0.003847
 5045 Fit       0.004095
 5046 Fit       0.004441
 5047 Fit       0.004817
 5048 Fit       0.005125
 5049 Fit       0.005190
 5050 Fit       0.004724
 5051 Fit       0.002823
 5052 Fit       0.002812
 5053 Fit       0.003037
 5054 Fit       0.003445
 5055 Fit       0.003996
 5056 Fit       0.004624
 5057 Fit       0.005192
 5058 Fit       0.001385
 5059 Fit       0.001643
 5060 Fit       0.002201
 5061 Fit       0.003054
 5062 Fit       0.004183
 5063 Fit      -0.000698
 5064 Fit      -0.000323
 5065 Fit       0.004153
 5066 Fit       0.005015
 5067 Fit       0.004860
 5068 Fit       0.004884
 5069 Fit       0.004925
 5070 Fit       0.004867
 5071 Fit       0.004963
 5072 Fit       0.005246
 5073 Fit       0.005568
 5074 Fit       0.005897
 5075 Fit       0.006270
 5076 Fit       0.003639
 5077 Fit       0.004220
 5078 Fit       0.004851
 5079 Fit       0.005438
 5080 Fit       0.005967
 5081 Fit       0.006483
 5082 Fit       0.007077
 5083 Fit       0.007904
 5084 Fit       0.001533
 5085 Fit       0.002897
 5086 Fit       0.004032
 5087 Fit       0.004956
 5088 Fit       0.005715
 5089 Fit       0.006380
 5090 Fit       0.007052
 5091 Fit       0.007888
 5092 Fit       0.001011
 5093 Fit       0.002723
 5094 Fit       0.004025
 5095 Fit       0.005034
 5096 Fit       0.005850
 5097 Fit       0.006575
 5098 Fit       0.007340
 5099 Fit       0.008330
 5100 Fit      -0.001025
 5101 Fit       0.001254
 5102 Fit       0.002922
 5103 Fit       0.004169
 5104 Fit       0.005130
 5105 Fit       0.005920
 5106 Fit       0.006658
 5107 Fit       0.007492
 5108 Fit       0.008637
 5109 Fit      -0.002496
 5110 Fit       0.000182
 5111 Fit       0.002086
 5112 Fit       0.003470
 5113 Fit       0.004500
 5114 Fit       0.005310
 5115 Fit       0.006023
 5116 Fit       0.006779
 5117 Fit       0.007749
 5118 Fit      -0.003381
 5119 Fit      -0.000552
 5120 Fit       0.001419
 5121 Fit       0.002810
 5122 Fit       0.003804
 5123 Fit       0.004539
 5124 Fit       0.005131
 5125 Fit       0.005680
 5126 Fit      -0.004056
 5127 Fit      -0.001292
 5128 Fit       0.000608
 5129 Fit       0.001904
 5130 Fit       0.002767
 5131 Fit       0.003313
 5132 Fit       0.003611
 5133 Fit      -0.007362
 5134 Fit      -0.003801
 5135 Fit      -0.001421
 5136 Fit       0.000122
 5137 Fit       0.001044
 5138 Fit       0.001469
 5139 Fit       0.001428
 5140 Fit      -0.006615
 5141 Fit      -0.003744
 5142 Fit      -0.001939
 5143 Fit      -0.000969
 5144 Fit      -0.000716
 5145 Fit      -0.009025
 5146 Fit      -0.005847
 5147 Fit      -0.003937
 5148 Fit      -0.003150
 5149 Fit      -0.007587
 5150 Fit       0.003424
 5151 Fit       0.003887
 5152 Fit       0.004712
 5153 Fit       0.005168
 5154 Fit       0.005304
 5155 Fit       0.005123
 5156 Fit       0.004228
 5157 Fit       0.005184
 5158 Fit       0.005861
 5159 Fit       0.006324
 5160 Fit       0.006605
 5161 Fit       0.006732
 5162 Fit       0.006737
 5163 Fit       0.006632
 5164 Fit       0.005805
 5165 Fit       0.006426
 5166 Fit       0.006915
 5167 Fit       0.007288
 5168 Fit       0.007553
 5169 Fit       0.007727
 5170 Fit       0.007845
 5171 Fit       0.007963
 5172 Fit       0.008151
 5173 Fit       0.006647
 5174 Fit       0.007021
 5175 Fit       0.007372
 5176 Fit       0.007698
 5177 Fit       0.007980
 5178 Fit       0.008204
 5179 Fit       0.008371
 5180 Fit       0.008505
 5181 Fit       0.008650
 5182 Fit       0.008886
 5183 Fit       0.009331
 5184 Fit       0.007877
 5185 Fit       0.007817
 5186 Fit       0.007916
 5187 Fit       0.008104
 5188 Fit       0.008318
 5189 Fit       0.008517
 5190 Fit       0.008680
 5191 Fit       0.008809
 5192 Fit       0.008930
 5193 Fit       0.009098
 5194 Fit       0.009411
 5195 Fit       0.010032
 5196 Fit       0.008579
 5197 Fit       0.008334
 5198 Fit       0.008329
 5199 Fit       0.008439
 5200 Fit       0.008586
 5201 Fit       0.008727
 5202 Fit       0.008841
 5203 Fit       0.008933
 5204 Fit       0.009031
 5205 Fit       0.009193
 5206 Fit       0.009519
 5207 Fit       0.010183
 5208 Fit       0.009072
 5209 Fit       0.008514
 5210 Fit       0.008340
 5211 Fit       0.008354
 5212 Fit       0.008447
 5213 Fit       0.008554
 5214 Fit       0.008644
 5215 Fit       0.008708
 5216 Fit       0.008761
 5217 Fit       0.008840
 5218 Fit       0.009015
 5219 Fit       0.009404
 5220 Fit       0.010210
 5221 Fit       0.008762
 5222 Fit       0.008175
 5223 Fit       0.007993
 5224 Fit       0.007999
 5225 Fit       0.008074
 5226 Fit       0.008154
 5227 Fit       0.008206
 5228 Fit       0.008224
 5229 Fit       0.008226
 5230 Fit       0.008254
 5231 Fit       0.008381
 5232 Fit       0.008724
 5233 Fit       0.007711
 5234 Fit       0.007350
 5235 Fit       0.007283
 5236 Fit       0.007334
 5237 Fit       0.007405
 5238 Fit       0.007444
 5239 Fit       0.007431
 5240 Fit       0.007369
 5241 Fit       0.007284
 5242 Fit       0.007224
 5243 Fit       0.007257
 5244 Fit       0.006278
 5245 Fit       0.006202
 5246 Fit       0.006263
 5247 Fit       0.006347
 5248 Fit       0.006390
 5249 Fit       0.006356
 5250 Fit       0.006236
 5251 Fit       0.006035
 5252 Fit       0.005769
 5253 Fit       0.005452
 5254 Fit       0.004527
 5255 Fit       0.004686
 5256 Fit       0.004867
 5257 Fit       0.004993
 5258 Fit       0.005006
 5259 Fit       0.004875
 5260 Fit       0.004583
 5261 Fit       0.004115
 5262 Fit       0.002711
 5263 Fit       0.003096
 5264 Fit       0.003277
 5265 Fit       0.003226
 5266 Fit       0.002912
 5267 Fit       0.002292
 5268 Fit       0.001136
 5269 Fit       0.004263
 5270 Fit       0.004640
 5271 Fit       0.004263
 5272 Fit       0.004595
 5273 Fit       0.005570
 5274 Fit       0.006092
 5275 Fit       0.006258
 5276 Fit       0.006092
 5277 Fit       0.005570
 5278 Fit       0.004595
 5279 Fit       0.006392
 5280 Fit       0.006970
 5281 Fit       0.007325
 5282 Fit       0.007498
 5283 Fit       0.007498
 5284 Fit       0.007325
 5285 Fit       0.006970
 5286 Fit       0.006392
 5287 Fit       0.007598
 5288 Fit       0.007931
 5289 Fit       0.008176
 5290 Fit       0.008352
 5291 Fit       0.008446
 5292 Fit       0.008445
 5293 Fit       0.008352
 5294 Fit       0.008176
 5295 Fit       0.007931
 5296 Fit       0.007599
 5297 Fit       0.008948
 5298 Fit       0.008876
 5299 Fit       0.008893
 5300 Fit       0.008961
 5301 Fit       0.009036
 5302 Fit       0.009083
 5303 Fit       0.009083
 5304 Fit       0.009036
 5305 Fit       0.008961
 5306 Fit       0.008892
 5307 Fit       0.008876
 5308 Fit       0.008950
 5309 Fit       0.009960
 5310 Fit       0.009557
 5311 Fit       0.009402
 5312 Fit       0.009376
 5313 Fit       0.009399
 5314 Fit       0.009422
 5315 Fit       0.009422
 5316 Fit       0.009398
 5317 Fit       0.009375
 5318 Fit       0.009401
 5319 Fit       0.009557
 5320 Fit       0.009960
 5321 Fit       0.010297
 5322 Fit       0.009761
 5323 Fit       0.009533
 5324 Fit       0.009462
 5325 Fit       0.009458
 5326 Fit       0.009468
 5327 Fit       0.009467
 5328 Fit       0.009457
 5329 Fit       0.009461
 5330 Fit       0.009531
 5331 Fit       0.009759
 5332 Fit       0.010296
 5333 Fit       0.010629
 5334 Fit       0.009793
 5335 Fit       0.009408
 5336 Fit       0.009256
 5337 Fit       0.009217
 5338 Fit       0.009218
 5339 Fit       0.009222
 5340 Fit       0.009217
 5341 Fit       0.009216
 5342 Fit       0.009255
 5343 Fit       0.009405
 5344 Fit       0.009790
 5345 Fit       0.010627
 5346 Fit       0.009634
 5347 Fit       0.009016
 5348 Fit       0.008757
 5349 Fit       0.008675
 5350 Fit       0.008667
 5351 Fit       0.008677
 5352 Fit       0.008676
 5353 Fit       0.008666
 5354 Fit       0.008673
 5355 Fit       0.008754
 5356 Fit       0.009012
 5357 Fit       0.009629
 5358 Fit       0.008034
 5359 Fit       0.007825
 5360 Fit       0.007783
 5361 Fit       0.007803
 5362 Fit       0.007827
 5363 Fit       0.007826
 5364 Fit       0.007801
 5365 Fit       0.007780
 5366 Fit       0.007821
 5367 Fit       0.008029
 5368 Fit       0.006462
 5369 Fit       0.006448
 5370 Fit       0.006517
 5371 Fit       0.006602
 5372 Fit       0.006655
 5373 Fit       0.006655
 5374 Fit       0.006600
 5375 Fit       0.006514
 5376 Fit       0.006442
 5377 Fit       0.006455
 5378 Fit       0.004795
 5379 Fit       0.005018
 5380 Fit       0.005136
 5381 Fit       0.005136
 5382 Fit       0.005016
 5383 Fit       0.004790
 5384 Fit       0.002991
 5385 Fit       0.003230
 5386 Fit       0.003229
 5387 Fit       0.002987
 5388 Fit       0.003428
 5389 Fit       0.005124
 5390 Fit       0.005306
 5391 Fit       0.005171
 5392 Fit       0.004716
 5393 Fit       0.003891
 5394 Fit       0.006631
 5395 Fit       0.006737
 5396 Fit       0.006733
 5397 Fit       0.006607
 5398 Fit       0.006327
 5399 Fit       0.005865
 5400 Fit       0.005188
 5401 Fit       0.004233
 5402 Fit       0.008148
 5403 Fit       0.007962
 5404 Fit       0.007845
 5405 Fit       0.007728
 5406 Fit       0.007555
 5407 Fit       0.007290
 5408 Fit       0.006917
 5409 Fit       0.006430
 5410 Fit       0.005809
 5411 Fit       0.009327
 5412 Fit       0.008884
 5413 Fit       0.008649
 5414 Fit       0.008505
 5415 Fit       0.008372
 5416 Fit       0.008204
 5417 Fit       0.007981
 5418 Fit       0.007700
 5419 Fit       0.007374
 5420 Fit       0.007024
 5421 Fit       0.006651
 5422 Fit       0.010028
 5423 Fit       0.009408
 5424 Fit       0.009096
 5425 Fit       0.008929
 5426 Fit       0.008809
 5427 Fit       0.008680
 5428 Fit       0.008518
 5429 Fit       0.008319
 5430 Fit       0.008105
 5431 Fit       0.007918
 5432 Fit       0.007820
 5433 Fit       0.007880
 5434 Fit       0.010179
 5435 Fit       0.009516
 5436 Fit       0.009191
 5437 Fit       0.009029
 5438 Fit       0.008932
 5439 Fit       0.008840
 5440 Fit       0.008726
 5441 Fit       0.008586
 5442 Fit       0.008439
 5443 Fit       0.008330
 5444 Fit       0.008336
 5445 Fit       0.008581
 5446 Fit       0.010206
 5447 Fit       0.009401
 5448 Fit       0.009012
 5449 Fit       0.008837
 5450 Fit       0.008759
 5451 Fit       0.008706
 5452 Fit       0.008642
 5453 Fit       0.008553
 5454 Fit       0.008446
 5455 Fit       0.008353
 5456 Fit       0.008340
 5457 Fit       0.008515
 5458 Fit       0.009074
 5459 Fit       0.008720
 5460 Fit       0.008378
 5461 Fit       0.008251
 5462 Fit       0.008223
 5463 Fit       0.008221
 5464 Fit       0.008203
 5465 Fit       0.008151
 5466 Fit       0.008072
 5467 Fit       0.007998
 5468 Fit       0.007992
 5469 Fit       0.008174
 5470 Fit       0.008762
 5471 Fit       0.007253
 5472 Fit       0.007221
 5473 Fit       0.007281
 5474 Fit       0.007366
 5475 Fit       0.007427
 5476 Fit       0.007441
 5477 Fit       0.007402
 5478 Fit       0.007331
 5479 Fit       0.007281
 5480 Fit       0.007348
 5481 Fit       0.007710
 5482 Fit       0.005448
 5483 Fit       0.005765
 5484 Fit       0.006031
 5485 Fit       0.006232
 5486 Fit       0.006352
 5487 Fit       0.006386
 5488 Fit       0.006343
 5489 Fit       0.006259
 5490 Fit       0.006198
 5491 Fit       0.006275
 5492 Fit       0.004110
 5493 Fit       0.004578
 5494 Fit       0.004870
 5495 Fit       0.005002
 5496 Fit       0.004988
 5497 Fit       0.004863
 5498 Fit       0.004681
 5499 Fit       0.004522
 5500 Fit       0.002286
 5501 Fit       0.002906
 5502 Fit       0.003220
 5503 Fit       0.003271
 5504 Fit       0.003090
 5505 Fit       0.002705
 5506 Fit       0.001130
 5507 Fit       0.004146
 5508 Fit       0.004926
 5509 Fit       0.004880
 5510 Fit       0.004852
 5511 Fit       0.005002
 5512 Fit       0.006272
 5513 Fit       0.005896
 5514 Fit       0.005564
 5515 Fit       0.005239
 5516 Fit       0.004950
 5517 Fit       0.004848
 5518 Fit       0.007906
 5519 Fit       0.007077
 5520 Fit       0.006480
 5521 Fit       0.005962
 5522 Fit       0.005430
 5523 Fit       0.004840
 5524 Fit       0.004203
 5525 Fit       0.003615
 5526 Fit       0.007887
 5527 Fit       0.007050
 5528 Fit       0.006376
 5529 Fit       0.005708
 5530 Fit       0.004946
 5531 Fit       0.004019
 5532 Fit       0.002879
 5533 Fit       0.001507
 5534 Fit       0.008327
 5535 Fit       0.007337
 5536 Fit       0.006571
 5537 Fit       0.005844
 5538 Fit       0.005026
 5539 Fit       0.004014
 5540 Fit       0.002708
 5541 Fit       0.000991
 5542 Fit       0.008633
 5543 Fit       0.007489
 5544 Fit       0.006654
 5545 Fit       0.005915
 5546 Fit       0.005123
 5547 Fit       0.004160
 5548 Fit       0.002910
 5549 Fit       0.001238
 5550 Fit      -0.001046
 5551 Fit       0.007745
 5552 Fit       0.006775
 5553 Fit       0.006019
 5554 Fit       0.005304
 5555 Fit       0.004493
 5556 Fit       0.003461
 5557 Fit       0.002075
 5558 Fit       0.000167
 5559 Fit      -0.002515
 5560 Fit       0.005676
 5561 Fit       0.005126
 5562 Fit       0.004533
 5563 Fit       0.003797
 5564 Fit       0.002801
 5565 Fit       0.001408
 5566 Fit      -0.000566
 5567 Fit      -0.003399
 5568 Fit       0.003607
 5569 Fit       0.003308
 5570 Fit       0.002760
 5571 Fit       0.001896
 5572 Fit       0.000599
 5573 Fit      -0.001303
 5574 Fit      -0.004072
 5575 Fit       0.001424
 5576 Fit       0.001463
 5577 Fit       0.001038
 5578 Fit       0.000114
 5579 Fit      -0.001431
 5580 Fit      -0.003813
 5581 Fit      -0.007377
 5582 Fit      -0.000722
 5583 Fit      -0.000976
 5584 Fit      -0.001947
 5585 Fit      -0.003754
 5586 Fit      -0.006626
 5587 Fit      -0.003156
 5588 Fit      -0.003944
 5589 Fit      -0.005855
 5590 Fit      -0.009035
 5591 Fit      -0.007594
 -----------------------------------------------------------------
 Leave Link  602 at Thu Nov  2 13:06:26 2023, MaxMem=   134217728 cpu:               0.4 elap:               0.4

 Test job not archived.
 1\1\GINC-LAC-364\FOpt\RHF\6-31G(d)\C7H8S1\RAHNAMOU\02-Nov-2023\0\\#HF/
 6-31G* SCF=tight Pop=MK iop(6/33=2) iop(6/42=6) opt\\mobley_1189457\\0
 ,1\C,1.7472000269,-2.7419908427,-2.2799937681\S,2.3265538028,-1.075987
 8734,-1.8478687212\C,2.1080314531,-1.0914194339,-0.0743103892\C,3.1427
 331042,-1.5057164845,0.7563336171\C,2.9784601493,-1.5018825523,2.13194
 42953\C,1.7817167641,-1.0786627952,2.6875121137\C,0.7500182322,-0.6563
 684055,1.8648008468\C,0.9129561144,-0.6597332673,0.4888859633\H,1.8385
 979942,-2.8397435644,-3.354410681\H,0.711258518,-2.8767946647,-1.99990
 02271\H,2.3547537067,-3.4993427472,-1.8034764975\H,4.0732662901,-1.825
 195528,0.3244365408\H,3.784202654,-1.8244381724,2.7668647809\H,1.65568
 97126,-1.0734366257,3.7554626385\H,-0.1782910936,-0.321115608,2.291685
 6057\H,0.116852571,-0.3241714348,-0.1499661181\\Version=ES64L-G16RevC.
 01\State=1-A\HF=-667.2452822\RMSD=4.684e-09\RMSF=2.227e-05\Dipole=-0.2
 641596,-0.5403547,0.4951854\Quadrupole=0.7878248,-2.4401203,1.6522955,
 -1.8784589,1.0542347,2.7906618\PG=C01 [X(C7H8S1)]\\@


 TO DRY ONE'S EYES AND LAUGH AT A FALL
 AND BAFFLED, GET UP AND BEGIN AGAIN.
           R. BROWNING
 Job cpu time:       0 days  0 hours  1 minutes 15.7 seconds.
 Elapsed time:       0 days  0 hours  1 minutes 15.4 seconds.
 File lengths (MBytes):  RWF=    272 Int=      0 D2E=      0 Chk=     32 Scr=     32
 Normal termination of Gaussian 16 at Thu Nov  2 13:06:26 2023.
