 Entering Gaussian System, Link 0=/opt/software/Gaussian/g16-AVX2-C.01/g16/g16
 Input=mobley_1178614.com
 Output=mobley_1178614.log
 Initial command:
 /opt/software/Gaussian/g16-AVX2-C.01/g16/l1.exe "/mnt/gs21/scratch/rahnamou/Gau-15381.inp" -scrdir="/mnt/gs21/scratch/rahnamou/"
 Entering Link 1 = /opt/software/Gaussian/g16-AVX2-C.01/g16/l1.exe PID=     15390.
  
 Copyright (c) 1988-2019, Gaussian, Inc.  All Rights Reserved.
  
 This is part of the Gaussian(R) 16 program.  It is based on
 the Gaussian(R) 09 system (copyright 2009, Gaussian, Inc.),
 the Gaussian(R) 03 system (copyright 2003, Gaussian, Inc.),
 the Gaussian(R) 98 system (copyright 1998, Gaussian, Inc.),
 the Gaussian(R) 94 system (copyright 1995, Gaussian, Inc.),
 the Gaussian 92(TM) system (copyright 1992, Gaussian, Inc.),
 the Gaussian 90(TM) system (copyright 1990, Gaussian, Inc.),
 the Gaussian 88(TM) system (copyright 1988, Gaussian, Inc.),
 the Gaussian 86(TM) system (copyright 1986, Carnegie Mellon
 University), and the Gaussian 82(TM) system (copyright 1983,
 Carnegie Mellon University). Gaussian is a federally registered
 trademark of Gaussian, Inc.
  
 This software contains proprietary and confidential information,
 including trade secrets, belonging to Gaussian, Inc.
  
 This software is provided under written license and may be
 used, copied, transmitted, or stored only in accord with that
 written license.
  
 The following legend is applicable only to US Government
 contracts under FAR:
  
                    RESTRICTED RIGHTS LEGEND
  
 Use, reproduction and disclosure by the US Government is
 subject to restrictions as set forth in subparagraphs (a)
 and (c) of the Commercial Computer Software - Restricted
 Rights clause in FAR 52.227-19.
  
 Gaussian, Inc.
 340 Quinnipiac St., Bldg. 40, Wallingford CT 06492
  
  
 ---------------------------------------------------------------
 Warning -- This program may not be used in any manner that
 competes with the business of Gaussian, Inc. or will provide
 assistance to any competitor of Gaussian, Inc.  The licensee
 of this program is prohibited from giving any competitor of
 Gaussian, Inc. access to this program.  By using this program,
 the user acknowledges that Gaussian, Inc. is engaged in the
 business of creating and licensing software in the field of
 computational chemistry and represents and warrants to the
 licensee that it is not a competitor of Gaussian, Inc. and that
 it will not use this program in any manner prohibited above.
 ---------------------------------------------------------------
  

 Cite this work as:
 Gaussian 16, Revision C.01,
 M. J. Frisch, G. W. Trucks, H. B. Schlegel, G. E. Scuseria, 
 M. A. Robb, J. R. Cheeseman, G. Scalmani, V. Barone, 
 G. A. Petersson, H. Nakatsuji, X. Li, M. Caricato, A. V. Marenich, 
 J. Bloino, B. G. Janesko, R. Gomperts, B. Mennucci, H. P. Hratchian, 
 J. V. Ortiz, A. F. Izmaylov, J. L. Sonnenberg, D. Williams-Young, 
 F. Ding, F. Lipparini, F. Egidi, J. Goings, B. Peng, A. Petrone, 
 T. Henderson, D. Ranasinghe, V. G. Zakrzewski, J. Gao, N. Rega, 
 G. Zheng, W. Liang, M. Hada, M. Ehara, K. Toyota, R. Fukuda, 
 J. Hasegawa, M. Ishida, T. Nakajima, Y. Honda, O. Kitao, H. Nakai, 
 T. Vreven, K. Throssell, J. A. Montgomery, Jr., J. E. Peralta, 
 F. Ogliaro, M. J. Bearpark, J. J. Heyd, E. N. Brothers, K. N. Kudin, 
 V. N. Staroverov, T. A. Keith, R. Kobayashi, J. Normand, 
 K. Raghavachari, A. P. Rendell, J. C. Burant, S. S. Iyengar, 
 J. Tomasi, M. Cossi, J. M. Millam, M. Klene, C. Adamo, R. Cammi, 
 J. W. Ochterski, R. L. Martin, K. Morokuma, O. Farkas, 
 J. B. Foresman, and D. J. Fox, Gaussian, Inc., Wallingford CT, 2019.
 
 ******************************************
 Gaussian 16:  ES64L-G16RevC.01  3-Jul-2019
                 2-Nov-2023 
 ******************************************
 %chk=mobley_1178614.chk
 %mem=1GB
 %NProcShared=1
 Will use up to    1 processors via shared memory.
 -------------------------------------------------------
 #HF/6-31G* SCF=tight Pop=MK iop(6/33=2) iop(6/42=6) opt
 -------------------------------------------------------
 1/18=20,19=15,38=1/1,3;
 2/9=110,12=2,17=6,18=5,40=1/2;
 3/5=1,6=6,7=1,11=9,25=1,30=1,71=1/1,2,3;
 4//1;
 5/5=2,32=2,38=5/2;
 6/7=2,8=2,9=2,10=2,15=8,20=1,28=1,33=2,42=6/1,2;
 7//1,2,3,16;
 1/18=20,19=15/3(2);
 2/9=110/2;
 99//99;
 2/9=110/2;
 3/5=1,6=6,7=1,11=9,25=1,30=1,71=1/1,2,3;
 4/5=5,16=3,69=1/1;
 5/5=2,32=2,38=5/2;
 7//1,2,3,16;
 1/18=20,19=15/3(-5);
 2/9=110/2;
 6/7=2,8=2,9=2,10=2,15=8,19=2,20=1,28=1,33=2,42=6/1,2;
 99/9=1/99;
 --------------
 mobley_1178614
 --------------
 Symbolic Z-matrix:
 Charge =  0 Multiplicity = 1
 C                     1.885    -1.036    -0.112 
 C                     2.921    -1.631     0.608 
 C                     2.878    -1.652     2.002 
 C                     1.8      -1.079     2.676 
 C                     0.764    -0.484     1.955 
 C                     0.807    -0.463     0.561 
 O                    -0.302     0.084     2.587 
 CL                    1.773    -1.119     4.4 
 H                     1.919    -1.02     -1.198 
 H                     3.761    -2.077     0.084 
 H                     3.693    -2.119     2.549 
 H                     0.003    -0.002    -0.007 
 H                    -0.205    -0.001     3.548 
 

 GradGradGradGradGradGradGradGradGradGradGradGradGradGradGradGradGradGrad
 Berny optimization.
 Initialization pass.
                           ----------------------------
                           !    Initial Parameters    !
                           ! (Angstroms and Degrees)  !
 --------------------------                            --------------------------
 ! Name  Definition              Value          Derivative Info.                !
 --------------------------------------------------------------------------------
 ! R1    R(1,2)                  1.3949         estimate D2E/DX2                !
 ! R2    R(1,6)                  1.394          estimate D2E/DX2                !
 ! R3    R(1,9)                  1.0866         estimate D2E/DX2                !
 ! R4    R(2,3)                  1.3948         estimate D2E/DX2                !
 ! R5    R(2,10)                 1.0859         estimate D2E/DX2                !
 ! R6    R(3,4)                  1.3945         estimate D2E/DX2                !
 ! R7    R(3,11)                 1.087          estimate D2E/DX2                !
 ! R8    R(4,5)                  1.3954         estimate D2E/DX2                !
 ! R9    R(4,8)                  1.7247         estimate D2E/DX2                !
 ! R10   R(5,6)                  1.3948         estimate D2E/DX2                !
 ! R11   R(5,7)                  1.3632         estimate D2E/DX2                !
 ! R12   R(6,12)                 1.087          estimate D2E/DX2                !
 ! R13   R(7,13)                 0.9696         estimate D2E/DX2                !
 ! A1    A(2,1,6)              120.0312         estimate D2E/DX2                !
 ! A2    A(2,1,9)              119.9274         estimate D2E/DX2                !
 ! A3    A(6,1,9)              120.0413         estimate D2E/DX2                !
 ! A4    A(1,2,3)              119.9597         estimate D2E/DX2                !
 ! A5    A(1,2,10)             120.0438         estimate D2E/DX2                !
 ! A6    A(3,2,10)             119.9965         estimate D2E/DX2                !
 ! A7    A(2,3,4)              120.045          estimate D2E/DX2                !
 ! A8    A(2,3,11)             119.0968         estimate D2E/DX2                !
 ! A9    A(4,3,11)             120.8581         estimate D2E/DX2                !
 ! A10   A(3,4,5)              119.9601         estimate D2E/DX2                !
 ! A11   A(3,4,8)              119.0585         estimate D2E/DX2                !
 ! A12   A(5,4,8)              120.9814         estimate D2E/DX2                !
 ! A13   A(4,5,6)              119.9949         estimate D2E/DX2                !
 ! A14   A(4,5,7)              121.2436         estimate D2E/DX2                !
 ! A15   A(6,5,7)              118.7615         estimate D2E/DX2                !
 ! A16   A(1,6,5)              120.0091         estimate D2E/DX2                !
 ! A17   A(1,6,12)             119.6054         estimate D2E/DX2                !
 ! A18   A(5,6,12)             120.3855         estimate D2E/DX2                !
 ! A19   A(5,7,13)             110.1654         estimate D2E/DX2                !
 ! D1    D(6,1,2,3)             -0.0199         estimate D2E/DX2                !
 ! D2    D(6,1,2,10)          -179.973          estimate D2E/DX2                !
 ! D3    D(9,1,2,3)           -179.9955         estimate D2E/DX2                !
 ! D4    D(9,1,2,10)             0.0514         estimate D2E/DX2                !
 ! D5    D(2,1,6,5)              0.02           estimate D2E/DX2                !
 ! D6    D(2,1,6,12)          -179.944          estimate D2E/DX2                !
 ! D7    D(9,1,6,5)            179.9955         estimate D2E/DX2                !
 ! D8    D(9,1,6,12)             0.0316         estimate D2E/DX2                !
 ! D9    D(1,2,3,4)              0.0186         estimate D2E/DX2                !
 ! D10   D(1,2,3,11)          -179.9762         estimate D2E/DX2                !
 ! D11   D(10,2,3,4)           179.9716         estimate D2E/DX2                !
 ! D12   D(10,2,3,11)           -0.0231         estimate D2E/DX2                !
 ! D13   D(2,3,4,5)             -0.0173         estimate D2E/DX2                !
 ! D14   D(2,3,4,8)           -179.9863         estimate D2E/DX2                !
 ! D15   D(11,3,4,5)           179.9774         estimate D2E/DX2                !
 ! D16   D(11,3,4,8)             0.0084         estimate D2E/DX2                !
 ! D17   D(3,4,5,6)              0.0173         estimate D2E/DX2                !
 ! D18   D(3,4,5,7)           -179.9888         estimate D2E/DX2                !
 ! D19   D(8,4,5,6)            179.9857         estimate D2E/DX2                !
 ! D20   D(8,4,5,7)             -0.0203         estimate D2E/DX2                !
 ! D21   D(4,5,6,1)             -0.0186         estimate D2E/DX2                !
 ! D22   D(4,5,6,12)           179.945          estimate D2E/DX2                !
 ! D23   D(7,5,6,1)            179.9873         estimate D2E/DX2                !
 ! D24   D(7,5,6,12)            -0.0491         estimate D2E/DX2                !
 ! D25   D(4,5,7,13)            -0.029          estimate D2E/DX2                !
 ! D26   D(6,5,7,13)           179.9651         estimate D2E/DX2                !
 --------------------------------------------------------------------------------
 Trust Radius=3.00D-01 FncErr=1.00D-07 GrdErr=1.00D-07 EigMax=2.50D+02 EigMin=1.00D-04
 Number of steps in this run=     68 maximum allowed number of steps=    100.
 GradGradGradGradGradGradGradGradGradGradGradGradGradGradGradGradGradGrad

                          Input orientation:                          
 ---------------------------------------------------------------------
 Center     Atomic      Atomic             Coordinates (Angstroms)
 Number     Number       Type             X           Y           Z
 ---------------------------------------------------------------------
      1          6           0        1.885000   -1.036000   -0.112000
      2          6           0        2.921000   -1.631000    0.608000
      3          6           0        2.878000   -1.652000    2.002000
      4          6           0        1.800000   -1.079000    2.676000
      5          6           0        0.764000   -0.484000    1.955000
      6          6           0        0.807000   -0.463000    0.561000
      7          8           0       -0.302000    0.084000    2.587000
      8         17           0        1.773000   -1.119000    4.400000
      9          1           0        1.919000   -1.020000   -1.198000
     10          1           0        3.761000   -2.077000    0.084000
     11          1           0        3.693000   -2.119000    2.549000
     12          1           0        0.003000   -0.002000   -0.007000
     13          1           0       -0.205000   -0.001000    3.548000
 ---------------------------------------------------------------------
                    Distance matrix (angstroms):
                    1          2          3          4          5
     1  C    0.000000
     2  C    1.394891   0.000000
     3  C    2.415471   1.394821   0.000000
     4  C    2.789627   2.416189   1.394521   0.000000
     5  C    2.415333   2.789743   2.415663   1.395407   0.000000
     6  C    1.394038   2.415663   2.789129   2.416346   1.394821
     7  O    3.649927   4.152758   3.669921   2.403933   1.363233
     8  Cl   4.514153   3.994911   2.693607   1.724675   2.720171
     9  H    1.086650   2.153825   3.399868   3.876276   3.400401
    10  H    2.154408   1.085860   2.153843   3.399998   3.875603
    11  H    3.394506   2.145136   1.086979   2.163603   3.406626
    12  H    2.149908   3.398027   3.876107   3.404060   2.158909
    13  H    4.339922   4.590466   3.823716   2.437723   1.926110
                    6          7          8          9         10
     6  C    0.000000
     7  O    2.373556   0.000000
     8  Cl   4.012657   3.006627   0.000000
     9  H    2.154269   4.525249   5.600779   0.000000
    10  H    3.399800   5.238597   4.847449   2.480673   0.000000
    11  H    3.876013   4.562311   2.848263   4.288926   2.466295
    12  H    1.086996   2.613285   4.878754   2.475048   4.293771
    13  H    3.187437   0.969616   2.426584   5.298514   5.660232
                   11         12         13
    11  H    0.000000
    12  H    4.962955   0.000000
    13  H    4.547343   3.561080   0.000000
 Stoichiometry    C6H5ClO
 Framework group  C1[X(C6H5ClO)]
 Deg. of freedom    33
 Full point group                 C1      NOp   1
 Largest Abelian subgroup         C1      NOp   1
 Largest concise Abelian subgroup C1      NOp   1
                         Standard orientation:                         
 ---------------------------------------------------------------------
 Center     Atomic      Atomic             Coordinates (Angstroms)
 Number     Number       Type             X           Y           Z
 ---------------------------------------------------------------------
      1          6           0       -2.357555   -0.010023   -0.000187
      2          6           0       -1.806291   -1.291362    0.000096
      3          6           0       -0.420942   -1.453640    0.000122
      4          6           0        0.412969   -0.335927    0.000257
      5          6           0       -0.139285    0.945547    0.000002
      6          6           0       -1.524634    1.107825   -0.000024
      7          8           0        0.651236    2.056169   -0.000103
      8         17           0        2.122224   -0.566044   -0.000075
      9          1           0       -3.436896    0.115793   -0.000134
     10          1           0       -2.454888   -2.162231   -0.000475
     11          1           0       -0.006450   -2.458488   -0.000051
     12          1           0       -1.961627    2.103113    0.000678
     13          1           0        1.586588    1.800685    0.000484
 ---------------------------------------------------------------------
 Rotational constants (GHZ):           2.9832951           1.5481935           1.0192496
 Standard basis: 6-31G(d) (6D, 7F)
 There are   134 symmetry adapted cartesian basis functions of A   symmetry.
 There are   134 symmetry adapted basis functions of A   symmetry.
   134 basis functions,   268 primitive gaussians,   134 cartesian basis functions
    33 alpha electrons       33 beta electrons
       nuclear repulsion energy       406.3944542227 Hartrees.
 NAtoms=   13 NActive=   13 NUniq=   13 SFac= 1.00D+00 NAtFMM=   60 NAOKFM=F Big=F
 Integral buffers will be    131072 words long.
 Raffenetti 1 integral format.
 Two-electron integral symmetry is turned on.
 One-electron integrals computed using PRISM.
 NBasis=   134 RedAO= T EigKep=  4.57D-04  NBF=   134
 NBsUse=   134 1.00D-06 EigRej= -1.00D+00 NBFU=   134
 ExpMin= 1.43D-01 ExpMax= 2.52D+04 ExpMxC= 3.78D+03 IAcc=3 IRadAn=         5 AccDes= 0.00D+00
 Harris functional with IExCor=  205 and IRadAn=       5 diagonalized for initial guess.
 HarFok:  IExCor=  205 AccDes= 0.00D+00 IRadAn=         5 IDoV= 1 UseB2=F ITyADJ=14
 ICtDFT=  3500011 ScaDFX=  1.000000  1.000000  1.000000  1.000000
 FoFCou: FMM=F IPFlag=           0 FMFlag=      100000 FMFlg1=           0
         NFxFlg=           0 DoJE=T BraDBF=F KetDBF=T FulRan=T
         wScrn=  0.000000 ICntrl=       500 IOpCl=  0 I1Cent=   200000004 NGrid=           0
         NMat0=    1 NMatS0=      1 NMatT0=    0 NMatD0=    1 NMtDS0=    0 NMtDT0=    0
 Petite list used in FoFCou.
 Keep R1 ints in memory in canonical form, NReq=42141851.
 Requested convergence on RMS density matrix=1.00D-08 within 128 cycles.
 Requested convergence on MAX density matrix=1.00D-06.
 Requested convergence on             energy=1.00D-06.
 No special actions if energy rises.
 SCF Done:  E(RHF) =  -764.455738668     A.U. after   15 cycles
            NFock= 15  Conv=0.94D-08     -V/T= 2.0011
 SCF density gives NOpUse=  1 NOpAll=  1.

 **********************************************************************

            Population analysis using the SCF Density.

 **********************************************************************

 Orbital symmetries:
 BldTbl:  Degeneracy threshold= 1.00D-02
       Occupied  (A) (A) (A) (A) (A) (A) (A) (A) (A) (A) (A) (A)
                 (A) (A) (A) (A) (A) (A) (A) (A) (A) (A) (A) (A)
                 (A) (A) (A) (A) (A) (A) (A) (A) (A)
       Virtual   (A) (A) (A) (A) (A) (A) (A) (A) (A) (A) (A) (A)
                 (A) (A) (A) (A) (A) (A) (A) (A) (A) (A) (A) (A)
                 (A) (A) (A) (A) (A) (A) (A) (A) (A) (A) (A) (A)
                 (A) (A) (A) (A) (A) (A) (A) (A) (A) (A) (A) (A)
                 (A) (A) (A) (A) (A) (A) (A) (A) (A) (A) (A) (A)
                 (A) (A) (A) (A) (A) (A) (A) (A) (A) (A) (A) (A)
                 (A) (A) (A) (A) (A) (A) (A) (A) (A) (A) (A) (A)
                 (A) (A) (A) (A) (A) (A) (A) (A) (A) (A) (A) (A)
                 (A) (A) (A) (A) (A)
 The electronic state is 1-A.
 Alpha  occ. eigenvalues -- -104.84266 -20.60026 -11.32176 -11.30225 -11.25942
 Alpha  occ. eigenvalues --  -11.25283 -11.24396 -11.24219 -10.57635  -8.04571
 Alpha  occ. eigenvalues --   -8.04257  -8.04229  -1.41040  -1.19113  -1.12790
 Alpha  occ. eigenvalues --   -1.02230  -0.99749  -0.84687  -0.83400  -0.74098
 Alpha  occ. eigenvalues --   -0.69332  -0.65851  -0.62115  -0.60263  -0.59637
 Alpha  occ. eigenvalues --   -0.57428  -0.53448  -0.52195  -0.50939  -0.47086
 Alpha  occ. eigenvalues --   -0.47060  -0.34344  -0.32136
 Alpha virt. eigenvalues --    0.12361   0.14663   0.19392   0.24271   0.25901
 Alpha virt. eigenvalues --    0.28795   0.31956   0.32469   0.35554   0.41225
 Alpha virt. eigenvalues --    0.44105   0.45743   0.49231   0.51109   0.58653
 Alpha virt. eigenvalues --    0.61346   0.62376   0.63204   0.68480   0.71372
 Alpha virt. eigenvalues --    0.74177   0.76581   0.80212   0.81830   0.82150
 Alpha virt. eigenvalues --    0.82874   0.82914   0.85421   0.85609   0.89296
 Alpha virt. eigenvalues --    0.90255   0.97021   0.98298   1.03302   1.07280
 Alpha virt. eigenvalues --    1.09750   1.10557   1.11304   1.13473   1.15952
 Alpha virt. eigenvalues --    1.16241   1.16818   1.18252   1.21753   1.25074
 Alpha virt. eigenvalues --    1.26977   1.28686   1.32328   1.34726   1.37985
 Alpha virt. eigenvalues --    1.43043   1.46321   1.48100   1.54278   1.59455
 Alpha virt. eigenvalues --    1.61924   1.67584   1.70114   1.72137   1.74035
 Alpha virt. eigenvalues --    1.76381   1.82865   1.94643   2.02117   2.05068
 Alpha virt. eigenvalues --    2.06698   2.13469   2.16827   2.22409   2.27003
 Alpha virt. eigenvalues --    2.27137   2.30416   2.38842   2.42472   2.44147
 Alpha virt. eigenvalues --    2.44798   2.55233   2.57592   2.60910   2.62376
 Alpha virt. eigenvalues --    2.75370   2.82373   2.86765   2.87956   2.98072
 Alpha virt. eigenvalues --    2.99772   3.06866   3.07005   3.08193   3.17696
 Alpha virt. eigenvalues --    3.30292   3.46694   3.75659   4.37298   4.48722
 Alpha virt. eigenvalues --    4.51315   4.59147   4.69048   4.78795   4.81776
 Alpha virt. eigenvalues --    5.13733
          Condensed to atoms (all electrons):
               1          2          3          4          5          6
     1  C    4.878561   0.546757  -0.044483  -0.029728  -0.037875   0.543261
     2  C    0.546757   4.911727   0.557160  -0.052487  -0.025910  -0.052547
     3  C   -0.044483   0.557160   4.925809   0.500260  -0.037379  -0.030245
     4  C   -0.029728  -0.052487   0.500260   5.272640   0.502729  -0.059270
     5  C   -0.037875  -0.025910  -0.037379   0.502729   4.416363   0.569599
     6  C    0.543261  -0.052547  -0.030245  -0.059270   0.569599   4.957347
     7  O    0.002002   0.000113   0.002920  -0.070574   0.289434  -0.044678
     8  Cl   0.000184   0.002472  -0.064451   0.190807  -0.069669   0.002278
     9  H    0.381369  -0.028855   0.002646   0.000149   0.001963  -0.027793
    10  H   -0.028832   0.383737  -0.029700   0.002606   0.000269   0.002328
    11  H    0.002373  -0.024615   0.380862  -0.028560   0.000721   0.000262
    12  H   -0.029078   0.002475  -0.000030   0.003530  -0.026402   0.376651
    13  H   -0.000154  -0.000011   0.000526  -0.003642  -0.025689   0.003885
               7          8          9         10         11         12
     1  C    0.002002   0.000184   0.381369  -0.028832   0.002373  -0.029078
     2  C    0.000113   0.002472  -0.028855   0.383737  -0.024615   0.002475
     3  C    0.002920  -0.064451   0.002646  -0.029700   0.380862  -0.000030
     4  C   -0.070574   0.190807   0.000149   0.002606  -0.028560   0.003530
     5  C    0.289434  -0.069669   0.001963   0.000269   0.000721  -0.026402
     6  C   -0.044678   0.002278  -0.027793   0.002328   0.000262   0.376651
     7  O    8.334212  -0.004445  -0.000037   0.000001  -0.000035  -0.000590
     8  Cl  -0.004445  16.927406   0.000006  -0.000096   0.000230  -0.000083
     9  H   -0.000037   0.000006   0.459052  -0.001349  -0.000100  -0.001729
    10  H    0.000001  -0.000096  -0.001349   0.463841  -0.001663  -0.000100
    11  H   -0.000035   0.000230  -0.000100  -0.001663   0.439996   0.000008
    12  H   -0.000590  -0.000083  -0.001729  -0.000100   0.000008   0.446279
    13  H    0.259168   0.015456   0.000002  -0.000000  -0.000004  -0.000080
              13
     1  C   -0.000154
     2  C   -0.000011
     3  C    0.000526
     4  C   -0.003642
     5  C   -0.025689
     6  C    0.003885
     7  O    0.259168
     8  Cl   0.015456
     9  H    0.000002
    10  H   -0.000000
    11  H   -0.000004
    12  H   -0.000080
    13  H    0.270305
 Mulliken charges:
               1
     1  C   -0.184357
     2  C   -0.220015
     3  C   -0.163894
     4  C   -0.228460
     5  C    0.441846
     6  C   -0.241078
     7  O   -0.767491
     8  Cl  -0.000096
     9  H    0.214677
    10  H    0.208959
    11  H    0.230526
    12  H    0.229149
    13  H    0.480237
 Sum of Mulliken charges =  -0.00000
 Mulliken charges with hydrogens summed into heavy atoms:
               1
     1  C    0.030319
     2  C   -0.011057
     3  C    0.066632
     4  C   -0.228460
     5  C    0.441846
     6  C   -0.011930
     7  O   -0.287255
     8  Cl  -0.000096
 DipInt: DoE/N= T F RetVal/Mat= T F Init=T NMatP=  1 IDeriv=0 Min/MaxMlt=  0  4
 Entering OneElI...
 OneElI was handed   134169365 working-precision words.
 Multipole integrals L=0 to 4 MinM= 0 MaxM= 0.
 Requested accuracy = 0.1000D-12
 ShPair: Thresh= 1.00D-13 NBox=     0 BxSize= 0.00D+00 RnKept= 1.07D+01
         NSMCal=                  946 NSMKep=                 909
 PrmmSu-InSpLW:  IPartL=    0 NPrtUS=    1 NPrtUL=    1 DoSpLW=F IThBeg=    0 IThEnd=    0 NThAct=    1.
 PrSmSu:  IncTry=   512 NBBP=            909 NTPThr=   100 NPartT=    1 Incr=           9 LDynOK=F GPUOK=F.
 PrsmSu:  NPrtUS=   1 ThrOK=F IAlg=2 LenDen=           0 ISkipM=0 DoSpLW=F IThBeg=    0 IThEnd=    0.
 Prism:   IPart=     0 DynPar=F LinDyn=F Incr=           9.
 PRISM was handed   134073529 working-precision words and   909 shell-pairs
 IPart=  0 NShTot=         909 NBatch=          45 AvBLen=        20.2
 PrsmSu-ThDecC:  IPartSL=    0    0 NPrtUSL=    1    1 IThBeg=    0 IThEnd=    0 CPU=   -1 GPU=   -1 NThAct=    1.
 PrSmSu:  NxtVal=             10.
 Electronic moments (au):
        -66.00000000         -0.38900896         -0.37498235          0.00040139
       -653.24323219       -373.63379562        -42.18437891          1.35462027
          0.00131458          0.00385088        202.06913688       -274.12365561
         -0.00122575        112.16269016        333.45291380          0.07470047
         11.39399801          4.48432468          0.00148660          0.00892727
     -12576.85026378      -4963.42096740       -157.36305975        618.41478251
         -0.10727924       -916.96143155          0.01783227         -0.00108060
          0.01120424      -2364.99851533       -441.02770690       -252.75952691
         -0.11097489          0.05515673         -0.04420094
 Electronic spatial extent (au):  <R**2>=           1069.0614
 DipInt: DoE/N= F T RetVal/Mat= T F Init=T NMatP=  1 IDeriv=0 Min/MaxMlt=  0  4
 Nuclear    moments (au):
         66.00000000          0.00000000         -0.00000000          0.00000000
        618.63855640        334.81484560          0.00000669         -0.00000000
         -0.00000000          0.00000000       -199.30767573        258.37677396
          0.00000000       -112.11772855       -319.48410427         -0.07416280
         -0.00000921          0.00000462          0.00442357         -0.01129876
      10524.33079007       3705.80792976          0.00000000       -579.48398064
          0.11294220        924.92582719          0.05155647         -0.00000000
          0.00000001       1844.31861305          0.00007436          0.00005839
          0.16821657         -0.03951239          0.00000116
 Total      moments (au):
         -0.00000000         -0.38900896         -0.37498235          0.00040139
        -34.60467579        -38.81895003        -42.18437222          1.35462027
          0.00131458          0.00385088          2.76146115        -15.74688166
         -0.00122574          0.04496161         13.96880952          0.00053766
         11.39398880          4.48432930          0.00591018         -0.00237149
      -2052.51947371      -1257.61303764       -157.36305975         38.93080188
          0.00566296          7.96439564          0.06938874         -0.00108060
          0.01120426       -520.67990227       -441.02763253       -252.75946852
          0.05724168          0.01564434         -0.04419978
 Traceless Quadrup. (au):
          3.93132356         -0.28295068         -3.64837288          1.35462027
          0.00131458          0.00385088
 Charge=             -0.0000 electrons
 Dipole moment (field-independent basis, Debye):
    X=             -0.9888    Y=             -0.9531    Z=              0.0010  Tot=              1.3733
 Quadrupole moment (field-independent basis, Debye-Ang):
   XX=            -46.5445   YY=            -52.2128   ZZ=            -56.7394
   XY=              1.8220   XZ=              0.0018   YZ=              0.0052
 Traceless Quadrupole moment (field-independent basis, Debye-Ang):
   XX=              5.2878   YY=             -0.3806   ZZ=             -4.9072
   XY=              1.8220   XZ=              0.0018   YZ=              0.0052
 Octapole moment (field-independent basis, Debye-Ang**2):
  XXX=              1.9655  YYY=            -11.2080  ZZZ=             -0.0009  XYY=              0.0320
  XXY=              9.9425  XXZ=              0.0004  XZZ=              8.1098  YZZ=              3.1918
  YYZ=              0.0042  XYZ=             -0.0017
 Hexadecapole moment (field-independent basis, Debye-Ang**3):
 XXXX=           -773.0773 YYYY=           -473.6774 ZZZZ=            -59.2705 XXXY=             14.6632
 XXXZ=              0.0021 YYYX=              2.9998 YYYZ=              0.0261 ZZZX=             -0.0004
 ZZZY=              0.0042 XXYY=           -196.1130 XXZZ=           -166.1122 YYZZ=            -95.2013
 XXYZ=              0.0216 YYXZ=              0.0059 ZZXY=             -0.0166
 N-N= 4.063944542227D+02 E-N=-2.619567707116D+03  KE= 7.635906576147D+02
 Entering OneElI...
 OneElI was handed   134177938 working-precision words.
 Calculate electrostatic properties
    NBasis =   134  MinDer = 0  MaxDer = 0
    NGrid  =    13  NMatD  =   1
 Requested accuracy = 0.1000D-12
 ShPair: Thresh= 1.00D-13 NBox=     0 BxSize= 0.00D+00 RnKept= 1.07D+01
         NSMCal=                  946 NSMKep=                 874
 PrmmSu-InSpLW:  IPartL=    0 NPrtUS=    1 NPrtUL=    1 DoSpLW=F IThBeg=    0 IThEnd=    0 NThAct=    1.
 PrSmSu:  IncTry=   512 NBBP=          11362 NTPThr=   100 NPartT=    1 Incr=         113 LDynOK=F GPUOK=F.
 PrsmSu:  NPrtUS=   1 ThrOK=F IAlg=2 LenDen=           0 ISkipM=0 DoSpLW=F IThBeg=    0 IThEnd=    0.
 Prism:   IPart=     0 DynPar=F LinDyn=F Incr=         113.
 PRISM was handed   134087143 working-precision words and   874 shell-pairs
 IPart=  0 NShTot=       11362 NBatch=         874 AvBLen=        13.0
 PrsmSu-ThDecC:  IPartSL=    0    0 NPrtUSL=    1    1 IThBeg=    0 IThEnd=    0 CPU=   -1 GPU=   -1 NThAct=    1.
 PrSmSu:  NxtVal=            114.
 --------------------------------------------------------
       Center         ----      EFG at Nuclei      ----
                      3XX-RR        3YY-RR        3ZZ-RR
 --------------------------------------------------------
     1   Atom        0.157044      0.217069     -0.374113
     2   Atom        0.127240      0.136845     -0.264085
     3   Atom        0.207390      0.128572     -0.335963
     4   Atom       -0.323217      0.288193      0.035024
     5   Atom        0.226634      0.013328     -0.239962
     6   Atom        0.090856      0.143151     -0.234007
     7   Atom       -1.423536     -0.222393      1.645929
     8   Atom       -3.411073      1.603674      1.807399
     9   Atom       -0.300558      0.137077      0.163481
    10   Atom       -0.019020     -0.149635      0.168655
    11   Atom        0.075245     -0.238750      0.163505
    12   Atom        0.068037     -0.234322      0.166285
    13   Atom       -0.389964      0.141739      0.248225
 --------------------------------------------------------
                        XY            XZ            YZ
 --------------------------------------------------------
     1   Atom        0.000105      0.000041      0.000110
     2   Atom       -0.022658      0.000052      0.000072
     3   Atom       -0.022554      0.000052      0.000013
     4   Atom        0.102695      0.000071     -0.000016
     5   Atom       -0.220784     -0.000051      0.000025
     6   Atom        0.033074     -0.000010      0.000064
     7   Atom       -0.706925     -0.001293      0.000629
     8   Atom        0.768677      0.001265     -0.000314
     9   Atom        0.052220      0.000015     -0.000003
    10   Atom       -0.215824     -0.000139     -0.000181
    11   Atom        0.157036      0.000026     -0.000065
    12   Atom        0.164634      0.000107     -0.000256
    13   Atom        0.151568     -0.000390      0.000124
 --------------------------------------------------------


 ---------------------------------------------------------------------------------
              Nuclear Quadrupole Coupling Constant in Principal Axis System
 ---------------------------------------------------------------------------------

       Atom             a.u.   MegaHertz   Gauss  10(-4) cm-1        Axes

              Baa    -3.5263   -67.651   -24.139   -22.566  0.9890 -0.1482 -0.0002
     8 Cl(35) Bbb     1.7189    32.976    11.767    11.000  0.1482  0.9890  0.0014
              Bcc     1.8074    34.675    12.373    11.566  0.0000 -0.0014  1.0000
 

 ---------------------------------------------------------------------------------

 No NMR shielding tensors so no spin-rotation constants.
 Leave Link  601 at Thu Nov  2 13:05:14 2023, MaxMem=   134217728 cpu:               0.1 elap:               0.1
 FitSet:  NAtFit=    13 NAtPot=    13 NAtFrz=     0 MDM=    17 TotChg=   0.00000
 Merz-Kollman atomic radii used.
 Atom Element Radius
    1     6    1.50
    2     6    1.50
    3     6    1.50
    4     6    1.50
    5     6    1.50
    6     6    1.50
    7     8    1.40
    8    17    1.70
    9     1    1.20
   10     1    1.20
   11     1    1.20
   12     1    1.20
   13     1    1.20
 Generate VDW surfaces: Layer= 4 Dens= 6 Start= 1.400 Inc= 0.200

 **********************************************************************

            Electrostatic Properties Using The SCF Density.

 **********************************************************************

       Atomic Center    1 is at  -2.357555 -0.010023 -0.000187
       Atomic Center    2 is at  -1.806291 -1.291362  0.000096
       Atomic Center    3 is at  -0.420942 -1.453640  0.000122
       Atomic Center    4 is at   0.412969 -0.335927  0.000257
       Atomic Center    5 is at  -0.139285  0.945547  0.000002
       Atomic Center    6 is at  -1.524634  1.107825 -0.000024
       Atomic Center    7 is at   0.651236  2.056169 -0.000103
       Atomic Center    8 is at   2.122224 -0.566044 -0.000075
       Atomic Center    9 is at  -3.436896  0.115793 -0.000134
       Atomic Center   10 is at  -2.454888 -2.162231 -0.000475
       Atomic Center   11 is at  -0.006450 -2.458488 -0.000051
       Atomic Center   12 is at  -1.961627  2.103113  0.000678
       Atomic Center   13 is at   1.586588  1.800685  0.000484
      ESP Fit Center   14 is at  -2.357555 -0.010023  2.099813
      ESP Fit Center   15 is at  -1.947865 -0.010023  2.059462
      ESP Fit Center   16 is at  -2.152710  0.344779  2.059462
      ESP Fit Center   17 is at  -2.562400  0.344779  2.059462
      ESP Fit Center   18 is at  -2.767244 -0.010023  2.059462
      ESP Fit Center   19 is at  -2.562400 -0.364825  2.059462
      ESP Fit Center   20 is at  -2.152710 -0.364825  2.059462
      ESP Fit Center   21 is at  -1.553920 -0.010023  1.939960
      ESP Fit Center   22 is at  -2.357555  0.793612  1.939960
      ESP Fit Center   23 is at  -2.759372  0.685945  1.939960
      ESP Fit Center   24 is at  -3.053523  0.391795  1.939960
      ESP Fit Center   25 is at  -3.161190 -0.010023  1.939960
      ESP Fit Center   26 is at  -3.053523 -0.411841  1.939960
      ESP Fit Center   27 is at  -2.759372 -0.705992  1.939960
      ESP Fit Center   28 is at  -1.661586 -0.411841  1.939960
      ESP Fit Center   29 is at  -3.060647  0.921022  1.745899
      ESP Fit Center   30 is at  -3.349501  0.604164  1.745899
      ESP Fit Center   31 is at  -3.504387  0.204357  1.745899
      ESP Fit Center   32 is at  -3.504387 -0.224403  1.745899
      ESP Fit Center   33 is at  -3.349501 -0.624210  1.745899
      ESP Fit Center   34 is at  -3.060647 -0.941068  1.745899
      ESP Fit Center   35 is at  -3.329973  1.112208  1.484737
      ESP Fit Center   36 is at  -3.606753 -0.812834  1.484737
      ESP Fit Center   37 is at  -3.329973 -1.132254  1.484737
      ESP Fit Center   38 is at  -3.349445  1.426978  1.166510
      ESP Fit Center   39 is at  -3.664519 -1.167892  1.166510
      ESP Fit Center   40 is at  -3.446340  1.595815  0.803448
      ESP Fit Center   41 is at  -3.766093 -1.344261  0.803448
      ESP Fit Center   42 is at  -3.446340  1.595815 -0.803823
      ESP Fit Center   43 is at  -3.766093 -1.344261 -0.803823
      ESP Fit Center   44 is at  -3.349445  1.426978 -1.166885
      ESP Fit Center   45 is at  -3.664519 -1.167892 -1.166885
      ESP Fit Center   46 is at  -3.329973  1.112208 -1.485112
      ESP Fit Center   47 is at  -3.606753 -0.812834 -1.485112
      ESP Fit Center   48 is at  -3.329973 -1.132254 -1.485112
      ESP Fit Center   49 is at  -1.190857 -0.010023 -1.746273
      ESP Fit Center   50 is at  -3.060647  0.921022 -1.746273
      ESP Fit Center   51 is at  -3.349501  0.604164 -1.746273
      ESP Fit Center   52 is at  -3.504387  0.204357 -1.746273
      ESP Fit Center   53 is at  -3.504387 -0.224403 -1.746273
      ESP Fit Center   54 is at  -3.349501 -0.624210 -1.746273
      ESP Fit Center   55 is at  -3.060647 -0.941068 -1.746273
      ESP Fit Center   56 is at  -1.553920 -0.010023 -1.940334
      ESP Fit Center   57 is at  -2.357555  0.793612 -1.940334
      ESP Fit Center   58 is at  -2.759372  0.685945 -1.940334
      ESP Fit Center   59 is at  -3.053523  0.391795 -1.940334
      ESP Fit Center   60 is at  -3.161190 -0.010023 -1.940334
      ESP Fit Center   61 is at  -3.053523 -0.411841 -1.940334
      ESP Fit Center   62 is at  -2.759372 -0.705992 -1.940334
      ESP Fit Center   63 is at  -1.661586 -0.411841 -1.940334
      ESP Fit Center   64 is at  -1.947865 -0.010023 -2.059836
      ESP Fit Center   65 is at  -2.152710  0.344779 -2.059836
      ESP Fit Center   66 is at  -2.562400  0.344779 -2.059836
      ESP Fit Center   67 is at  -2.767244 -0.010023 -2.059836
      ESP Fit Center   68 is at  -2.562400 -0.364825 -2.059836
      ESP Fit Center   69 is at  -2.152710 -0.364825 -2.059836
      ESP Fit Center   70 is at  -2.357555 -0.010023 -2.100187
      ESP Fit Center   71 is at  -1.806291 -1.291362  2.100096
      ESP Fit Center   72 is at  -1.396601 -1.291362  2.059745
      ESP Fit Center   73 is at  -1.601446 -0.936560  2.059745
      ESP Fit Center   74 is at  -2.011135 -0.936560  2.059745
      ESP Fit Center   75 is at  -2.215980 -1.291362  2.059745
      ESP Fit Center   76 is at  -2.011135 -1.646163  2.059745
      ESP Fit Center   77 is at  -1.601446 -1.646163  2.059745
      ESP Fit Center   78 is at  -1.110322 -0.889544  1.940243
      ESP Fit Center   79 is at  -1.404473 -0.595393  1.940243
      ESP Fit Center   80 is at  -2.502259 -0.889544  1.940243
      ESP Fit Center   81 is at  -2.609926 -1.291362  1.940243
      ESP Fit Center   82 is at  -2.502259 -1.693179  1.940243
      ESP Fit Center   83 is at  -2.208108 -1.987330  1.940243
      ESP Fit Center   84 is at  -1.806291 -2.094997  1.940243
      ESP Fit Center   85 is at  -1.404473 -1.987330  1.940243
      ESP Fit Center   86 is at  -2.953123 -1.076982  1.746182
      ESP Fit Center   87 is at  -2.953123 -1.505742  1.746182
      ESP Fit Center   88 is at  -2.798237 -1.905549  1.746182
      ESP Fit Center   89 is at  -2.509383 -2.222406  1.746182
      ESP Fit Center   90 is at  -2.125572 -2.413521  1.746182
      ESP Fit Center   91 is at  -1.698641 -2.453082  1.746182
      ESP Fit Center   92 is at  -1.286249 -2.335746  1.746182
      ESP Fit Center   93 is at  -3.291215 -1.291362  1.485020
      ESP Fit Center   94 is at  -3.231065 -1.709713  1.485020
      ESP Fit Center   95 is at  -1.594964 -2.761171  1.485020
      ESP Fit Center   96 is at  -3.552377 -1.291362  1.166793
      ESP Fit Center   97 is at  -1.595823 -3.024717  1.166793
      ESP Fit Center   98 is at  -3.552377 -1.291362 -1.166602
      ESP Fit Center   99 is at  -1.595823 -3.024717 -1.166602
      ESP Fit Center  100 is at  -3.291215 -1.291362 -1.484828
      ESP Fit Center  101 is at  -3.231065 -1.709713 -1.484828
      ESP Fit Center  102 is at  -1.594964 -2.761171 -1.484828
      ESP Fit Center  103 is at  -2.953123 -1.076982 -1.745990
      ESP Fit Center  104 is at  -2.953123 -1.505742 -1.745990
      ESP Fit Center  105 is at  -2.798237 -1.905549 -1.745990
      ESP Fit Center  106 is at  -2.509383 -2.222406 -1.745990
      ESP Fit Center  107 is at  -2.125572 -2.413521 -1.745990
      ESP Fit Center  108 is at  -1.698641 -2.453082 -1.745990
      ESP Fit Center  109 is at  -1.286249 -2.335746 -1.745990
      ESP Fit Center  110 is at  -1.110322 -0.889544 -1.940051
      ESP Fit Center  111 is at  -1.404473 -0.595393 -1.940051
      ESP Fit Center  112 is at  -2.502259 -0.889544 -1.940051
      ESP Fit Center  113 is at  -2.609926 -1.291362 -1.940051
      ESP Fit Center  114 is at  -2.502259 -1.693179 -1.940051
      ESP Fit Center  115 is at  -2.208108 -1.987330 -1.940051
      ESP Fit Center  116 is at  -1.806291 -2.094997 -1.940051
      ESP Fit Center  117 is at  -1.404473 -1.987330 -1.940051
      ESP Fit Center  118 is at  -1.396601 -1.291362 -2.059553
      ESP Fit Center  119 is at  -1.601446 -0.936560 -2.059553
      ESP Fit Center  120 is at  -2.011135 -0.936560 -2.059553
      ESP Fit Center  121 is at  -2.215980 -1.291362 -2.059553
      ESP Fit Center  122 is at  -2.011135 -1.646163 -2.059553
      ESP Fit Center  123 is at  -1.601446 -1.646163 -2.059553
      ESP Fit Center  124 is at  -1.806291 -1.291362 -2.099904
      ESP Fit Center  125 is at  -0.420942 -1.453640  2.100122
      ESP Fit Center  126 is at  -0.011252 -1.453640  2.059771
      ESP Fit Center  127 is at  -0.216097 -1.098838  2.059771
      ESP Fit Center  128 is at  -0.625786 -1.098838  2.059771
      ESP Fit Center  129 is at  -0.830631 -1.453640  2.059771
      ESP Fit Center  130 is at  -0.625786 -1.808442  2.059771
      ESP Fit Center  131 is at  -0.216097 -1.808442  2.059771
      ESP Fit Center  132 is at   0.382694 -1.453640  1.940269
      ESP Fit Center  133 is at  -0.420942 -0.650005  1.940269
      ESP Fit Center  134 is at  -0.822759 -0.757672  1.940269
      ESP Fit Center  135 is at  -1.116910 -1.855458  1.940269
      ESP Fit Center  136 is at  -0.822759 -2.149609  1.940269
      ESP Fit Center  137 is at  -0.420942 -2.257275  1.940269
      ESP Fit Center  138 is at  -0.019124 -2.149609  1.940269
      ESP Fit Center  139 is at   0.275027 -1.855458  1.940269
      ESP Fit Center  140 is at  -1.124034 -2.384685  1.746208
      ESP Fit Center  141 is at  -0.740223 -2.575800  1.746208
      ESP Fit Center  142 is at  -0.313292 -2.615361  1.746208
      ESP Fit Center  143 is at   0.099100 -2.498025  1.746208
      ESP Fit Center  144 is at   0.441258 -2.239639  1.746208
      ESP Fit Center  145 is at   0.666971 -1.875100  1.746208
      ESP Fit Center  146 is at  -1.037801 -2.804375  1.485046
      ESP Fit Center  147 is at   0.828256 -2.256451  1.485046
      ESP Fit Center  148 is at  -1.040112 -3.086259  1.166819
      ESP Fit Center  149 is at  -1.040112 -3.086259 -1.166576
      ESP Fit Center  150 is at  -1.037801 -2.804375 -1.484803
      ESP Fit Center  151 is at   0.828256 -2.256451 -1.484803
      ESP Fit Center  152 is at  -1.124034 -2.384685 -1.745965
      ESP Fit Center  153 is at  -0.740223 -2.575800 -1.745965
      ESP Fit Center  154 is at  -0.313292 -2.615361 -1.745965
      ESP Fit Center  155 is at   0.099100 -2.498025 -1.745965
      ESP Fit Center  156 is at   0.441258 -2.239639 -1.745965
      ESP Fit Center  157 is at   0.666971 -1.875100 -1.745965
      ESP Fit Center  158 is at   0.382694 -1.453640 -1.940025
      ESP Fit Center  159 is at  -0.420942 -0.650005 -1.940025
      ESP Fit Center  160 is at  -0.822759 -0.757672 -1.940025
      ESP Fit Center  161 is at  -1.116910 -1.855458 -1.940025
      ESP Fit Center  162 is at  -0.822759 -2.149609 -1.940025
      ESP Fit Center  163 is at  -0.420942 -2.257275 -1.940025
      ESP Fit Center  164 is at  -0.019124 -2.149609 -1.940025
      ESP Fit Center  165 is at   0.275027 -1.855458 -1.940025
      ESP Fit Center  166 is at  -0.011252 -1.453640 -2.059527
      ESP Fit Center  167 is at  -0.216097 -1.098838 -2.059527
      ESP Fit Center  168 is at  -0.625786 -1.098838 -2.059527
      ESP Fit Center  169 is at  -0.830631 -1.453640 -2.059527
      ESP Fit Center  170 is at  -0.625786 -1.808442 -2.059527
      ESP Fit Center  171 is at  -0.216097 -1.808442 -2.059527
      ESP Fit Center  172 is at  -0.420942 -1.453640 -2.099878
      ESP Fit Center  173 is at   0.412969 -0.335927  2.100257
      ESP Fit Center  174 is at   0.822659 -0.335927  2.059906
      ESP Fit Center  175 is at   0.617814  0.018874  2.059906
      ESP Fit Center  176 is at   0.208125  0.018874  2.059906
      ESP Fit Center  177 is at   0.003280 -0.335927  2.059906
      ESP Fit Center  178 is at   0.208125 -0.690729  2.059906
      ESP Fit Center  179 is at   0.617814 -0.690729  2.059906
      ESP Fit Center  180 is at   0.814787  0.360041  1.940404
      ESP Fit Center  181 is at  -0.282999  0.065890  1.940404
      ESP Fit Center  182 is at  -0.390666 -0.335927  1.940404
      ESP Fit Center  183 is at   0.412969 -1.139563  1.940404
      ESP Fit Center  184 is at   0.814787 -1.031896  1.940404
      ESP Fit Center  185 is at  -0.733863 -0.121547  1.746343
      ESP Fit Center  186 is at  -0.733863 -0.121547 -1.745829
      ESP Fit Center  187 is at   0.814787  0.360041 -1.939890
      ESP Fit Center  188 is at  -0.282999  0.065890 -1.939890
      ESP Fit Center  189 is at  -0.390666 -0.335927 -1.939890
      ESP Fit Center  190 is at   0.412969 -1.139563 -1.939890
      ESP Fit Center  191 is at   0.814787 -1.031896 -1.939890
      ESP Fit Center  192 is at   0.822659 -0.335927 -2.059392
      ESP Fit Center  193 is at   0.617814  0.018874 -2.059392
      ESP Fit Center  194 is at   0.208125  0.018874 -2.059392
      ESP Fit Center  195 is at   0.003280 -0.335927 -2.059392
      ESP Fit Center  196 is at   0.208125 -0.690729 -2.059392
      ESP Fit Center  197 is at   0.617814 -0.690729 -2.059392
      ESP Fit Center  198 is at   0.412969 -0.335927 -2.099743
      ESP Fit Center  199 is at  -0.139285  0.945547  2.100002
      ESP Fit Center  200 is at   0.270404  0.945547  2.059651
      ESP Fit Center  201 is at   0.065560  1.300349  2.059651
      ESP Fit Center  202 is at  -0.344130  1.300349  2.059651
      ESP Fit Center  203 is at  -0.548975  0.945547  2.059651
      ESP Fit Center  204 is at  -0.344130  0.590745  2.059651
      ESP Fit Center  205 is at   0.065560  0.590745  2.059651
      ESP Fit Center  206 is at   0.664350  0.945547  1.940149
      ESP Fit Center  207 is at   0.556683  1.347365  1.940149
      ESP Fit Center  208 is at   0.262532  1.641516  1.940149
      ESP Fit Center  209 is at  -0.139285  1.749182  1.940149
      ESP Fit Center  210 is at  -0.541103  1.641516  1.940149
      ESP Fit Center  211 is at  -0.835254  0.543729  1.940149
      ESP Fit Center  212 is at  -0.541103  0.249579  1.940149
      ESP Fit Center  213 is at   0.556683  0.543729  1.940149
      ESP Fit Center  214 is at   1.027412  0.945547  1.746088
      ESP Fit Center  215 is at  -0.458567  2.067707  1.746088
      ESP Fit Center  216 is at  -0.842378  0.014502  1.746088
      ESP Fit Center  217 is at   1.027412  0.945547 -1.746084
      ESP Fit Center  218 is at  -0.458567  2.067707 -1.746084
      ESP Fit Center  219 is at  -0.842378  0.014502 -1.746084
      ESP Fit Center  220 is at   0.664350  0.945547 -1.940145
      ESP Fit Center  221 is at   0.556683  1.347365 -1.940145
      ESP Fit Center  222 is at   0.262532  1.641516 -1.940145
      ESP Fit Center  223 is at  -0.139285  1.749182 -1.940145
      ESP Fit Center  224 is at  -0.541103  1.641516 -1.940145
      ESP Fit Center  225 is at  -0.835254  0.543729 -1.940145
      ESP Fit Center  226 is at  -0.541103  0.249579 -1.940145
      ESP Fit Center  227 is at   0.556683  0.543729 -1.940145
      ESP Fit Center  228 is at   0.270404  0.945547 -2.059647
      ESP Fit Center  229 is at   0.065560  1.300349 -2.059647
      ESP Fit Center  230 is at  -0.344130  1.300349 -2.059647
      ESP Fit Center  231 is at  -0.548975  0.945547 -2.059647
      ESP Fit Center  232 is at  -0.344130  0.590745 -2.059647
      ESP Fit Center  233 is at   0.065560  0.590745 -2.059647
      ESP Fit Center  234 is at  -0.139285  0.945547 -2.099998
      ESP Fit Center  235 is at  -1.524634  1.107825  2.099976
      ESP Fit Center  236 is at  -1.114945  1.107825  2.059625
      ESP Fit Center  237 is at  -1.319789  1.462627  2.059625
      ESP Fit Center  238 is at  -1.729479  1.462627  2.059625
      ESP Fit Center  239 is at  -1.934324  1.107825  2.059625
      ESP Fit Center  240 is at  -1.729479  0.753024  2.059625
      ESP Fit Center  241 is at  -1.319789  0.753024  2.059625
      ESP Fit Center  242 is at  -0.828666  1.509643  1.940123
      ESP Fit Center  243 is at  -1.122817  1.803794  1.940123
      ESP Fit Center  244 is at  -1.524634  1.911461  1.940123
      ESP Fit Center  245 is at  -1.926452  1.803794  1.940123
      ESP Fit Center  246 is at  -2.220603  1.509643  1.940123
      ESP Fit Center  247 is at  -2.328269  1.107825  1.940123
      ESP Fit Center  248 is at  -1.524634  0.304190  1.940123
      ESP Fit Center  249 is at  -1.122817  0.411857  1.940123
      ESP Fit Center  250 is at  -1.004592  2.152210  1.746062
      ESP Fit Center  251 is at  -1.416985  2.269546  1.746062
      ESP Fit Center  252 is at  -1.843916  2.229985  1.746062
      ESP Fit Center  253 is at  -2.227727  2.038870  1.746062
      ESP Fit Center  254 is at  -2.516580  1.722013  1.746062
      ESP Fit Center  255 is at  -2.671466  1.322206  1.746062
      ESP Fit Center  256 is at  -1.004592  0.063441  1.746062
      ESP Fit Center  257 is at  -0.907774  2.458560  1.484900
      ESP Fit Center  258 is at  -1.313307  2.577635  1.484900
      ESP Fit Center  259 is at  -2.773832  1.910636  1.484900
      ESP Fit Center  260 is at  -2.949409  1.526177  1.484900
      ESP Fit Center  261 is at  -0.905464  2.740444  1.166673
      ESP Fit Center  262 is at  -3.219982  1.525691  1.166673
      ESP Fit Center  263 is at  -0.905464  2.740444 -1.166722
      ESP Fit Center  264 is at  -3.219982  1.525691 -1.166722
      ESP Fit Center  265 is at  -0.907774  2.458560 -1.484948
      ESP Fit Center  266 is at  -1.313307  2.577635 -1.484948
      ESP Fit Center  267 is at  -2.773832  1.910636 -1.484948
      ESP Fit Center  268 is at  -2.949409  1.526177 -1.484948
      ESP Fit Center  269 is at  -1.004592  2.152210 -1.746110
      ESP Fit Center  270 is at  -1.416985  2.269546 -1.746110
      ESP Fit Center  271 is at  -1.843916  2.229985 -1.746110
      ESP Fit Center  272 is at  -2.227727  2.038870 -1.746110
      ESP Fit Center  273 is at  -2.516580  1.722013 -1.746110
      ESP Fit Center  274 is at  -2.671466  1.322206 -1.746110
      ESP Fit Center  275 is at  -1.004592  0.063441 -1.746110
      ESP Fit Center  276 is at  -0.828666  1.509643 -1.940171
      ESP Fit Center  277 is at  -1.122817  1.803794 -1.940171
      ESP Fit Center  278 is at  -1.524634  1.911461 -1.940171
      ESP Fit Center  279 is at  -1.926452  1.803794 -1.940171
      ESP Fit Center  280 is at  -2.220603  1.509643 -1.940171
      ESP Fit Center  281 is at  -2.328269  1.107825 -1.940171
      ESP Fit Center  282 is at  -1.524634  0.304190 -1.940171
      ESP Fit Center  283 is at  -1.122817  0.411857 -1.940171
      ESP Fit Center  284 is at  -1.114945  1.107825 -2.059673
      ESP Fit Center  285 is at  -1.319789  1.462627 -2.059673
      ESP Fit Center  286 is at  -1.729479  1.462627 -2.059673
      ESP Fit Center  287 is at  -1.934324  1.107825 -2.059673
      ESP Fit Center  288 is at  -1.729479  0.753024 -2.059673
      ESP Fit Center  289 is at  -1.319789  0.753024 -2.059673
      ESP Fit Center  290 is at  -1.524634  1.107825 -2.100024
      ESP Fit Center  291 is at   0.651236  2.056169  1.959897
      ESP Fit Center  292 is at   1.058743  2.056169  1.917066
      ESP Fit Center  293 is at   0.854989  2.409080  1.917066
      ESP Fit Center  294 is at   0.447483  2.409080  1.917066
      ESP Fit Center  295 is at   0.243729  2.056169  1.917066
      ESP Fit Center  296 is at   0.447483  1.703257  1.917066
      ESP Fit Center  297 is at   0.854989  1.703257  1.917066
      ESP Fit Center  298 is at   1.448440  2.056169  1.790446
      ESP Fit Center  299 is at   1.341635  2.454770  1.790446
      ESP Fit Center  300 is at   1.049838  2.746567  1.790446
      ESP Fit Center  301 is at   0.651236  2.853372  1.790446
      ESP Fit Center  302 is at   0.252634  2.746567  1.790446
      ESP Fit Center  303 is at  -0.039163  2.454770  1.790446
      ESP Fit Center  304 is at  -0.145968  2.056169  1.790446
      ESP Fit Center  305 is at   1.049838  1.365770  1.790446
      ESP Fit Center  306 is at   1.341635  1.657567  1.790446
      ESP Fit Center  307 is at   1.725499  2.472340  1.585570
      ESP Fit Center  308 is at   1.502618  2.832306  1.585570
      ESP Fit Center  309 is at   1.164753  3.087450  1.585570
      ESP Fit Center  310 is at   0.757535  3.203313  1.585570
      ESP Fit Center  311 is at   0.335960  3.164249  1.585570
      ESP Fit Center  312 is at  -0.043035  2.975532  1.585570
      ESP Fit Center  313 is at  -0.328264  2.662650  1.585570
      ESP Fit Center  314 is at   1.876576  2.843646  1.311393
      ESP Fit Center  315 is at   1.605083  3.156966  1.311393
      ESP Fit Center  316 is at   1.256315  3.381106  1.311393
      ESP Fit Center  317 is at   0.858527  3.497907  1.311393
      ESP Fit Center  318 is at   0.443945  3.497907  1.311393
      ESP Fit Center  319 is at   0.046158  3.381106  1.311393
      ESP Fit Center  320 is at  -0.302610  3.156966  1.311393
      ESP Fit Center  321 is at  -0.574103  2.843646  1.311393
      ESP Fit Center  322 is at   1.888595  3.218126  0.979897
      ESP Fit Center  323 is at   1.560754  3.489339  0.979897
      ESP Fit Center  324 is at   1.175765  3.670501  0.979897
      ESP Fit Center  325 is at   0.757817  3.750229  0.979897
      ESP Fit Center  326 is at   0.333173  3.723513  0.979897
      ESP Fit Center  327 is at  -0.071486  3.592031  0.979897
      ESP Fit Center  328 is at  -0.430734  3.364045  0.979897
      ESP Fit Center  329 is at  -0.721997  3.053881  0.979897
      ESP Fit Center  330 is at   1.813465  3.513558  0.605570
      ESP Fit Center  331 is at   1.460026  3.735638  0.605570
      ESP Fit Center  332 is at   1.066031  3.873503  0.605570
      ESP Fit Center  333 is at   0.651236  3.920239  0.605570
      ESP Fit Center  334 is at   0.236441  3.873503  0.605570
      ESP Fit Center  335 is at  -0.157554  3.735638  0.605570
      ESP Fit Center  336 is at  -0.510993  3.513558  0.605570
      ESP Fit Center  337 is at  -0.806153  3.218398  0.605570
      ESP Fit Center  338 is at   1.913162  3.541823  0.204773
      ESP Fit Center  339 is at   1.564287  3.778366  0.204773
      ESP Fit Center  340 is at   1.172719  3.934381  0.204773
      ESP Fit Center  341 is at   0.756767  4.002573  0.204773
      ESP Fit Center  342 is at   0.335880  3.979753  0.204773
      ESP Fit Center  343 is at  -0.070261  3.866988  0.204773
      ESP Fit Center  344 is at  -0.442665  3.669552  0.204773
      ESP Fit Center  345 is at  -0.763920  3.396676  0.204773
      ESP Fit Center  346 is at   1.913162  3.541823 -0.204979
      ESP Fit Center  347 is at   1.564287  3.778366 -0.204979
      ESP Fit Center  348 is at   1.172719  3.934381 -0.204979
      ESP Fit Center  349 is at   0.756767  4.002573 -0.204979
      ESP Fit Center  350 is at   0.335880  3.979753 -0.204979
      ESP Fit Center  351 is at  -0.070261  3.866988 -0.204979
      ESP Fit Center  352 is at  -0.442665  3.669552 -0.204979
      ESP Fit Center  353 is at  -0.763920  3.396676 -0.204979
      ESP Fit Center  354 is at   1.813465  3.513558 -0.605776
      ESP Fit Center  355 is at   1.460026  3.735638 -0.605776
      ESP Fit Center  356 is at   1.066031  3.873503 -0.605776
      ESP Fit Center  357 is at   0.651236  3.920239 -0.605776
      ESP Fit Center  358 is at   0.236441  3.873503 -0.605776
      ESP Fit Center  359 is at  -0.157554  3.735638 -0.605776
      ESP Fit Center  360 is at  -0.510993  3.513558 -0.605776
      ESP Fit Center  361 is at  -0.806153  3.218398 -0.605776
      ESP Fit Center  362 is at   1.888595  3.218126 -0.980103
      ESP Fit Center  363 is at   1.560754  3.489339 -0.980103
      ESP Fit Center  364 is at   1.175765  3.670501 -0.980103
      ESP Fit Center  365 is at   0.757817  3.750229 -0.980103
      ESP Fit Center  366 is at   0.333173  3.723513 -0.980103
      ESP Fit Center  367 is at  -0.071486  3.592031 -0.980103
      ESP Fit Center  368 is at  -0.430734  3.364045 -0.980103
      ESP Fit Center  369 is at  -0.721997  3.053881 -0.980103
      ESP Fit Center  370 is at   1.876576  2.843646 -1.311599
      ESP Fit Center  371 is at   1.605083  3.156966 -1.311599
      ESP Fit Center  372 is at   1.256315  3.381106 -1.311599
      ESP Fit Center  373 is at   0.858527  3.497907 -1.311599
      ESP Fit Center  374 is at   0.443945  3.497907 -1.311599
      ESP Fit Center  375 is at   0.046158  3.381106 -1.311599
      ESP Fit Center  376 is at  -0.302610  3.156966 -1.311599
      ESP Fit Center  377 is at  -0.574103  2.843646 -1.311599
      ESP Fit Center  378 is at   1.725499  2.472340 -1.585776
      ESP Fit Center  379 is at   1.502618  2.832306 -1.585776
      ESP Fit Center  380 is at   1.164753  3.087450 -1.585776
      ESP Fit Center  381 is at   0.757535  3.203313 -1.585776
      ESP Fit Center  382 is at   0.335960  3.164249 -1.585776
      ESP Fit Center  383 is at  -0.043035  2.975532 -1.585776
      ESP Fit Center  384 is at  -0.328264  2.662650 -1.585776
      ESP Fit Center  385 is at   1.448440  2.056169 -1.790652
      ESP Fit Center  386 is at   1.341635  2.454770 -1.790652
      ESP Fit Center  387 is at   1.049838  2.746567 -1.790652
      ESP Fit Center  388 is at   0.651236  2.853372 -1.790652
      ESP Fit Center  389 is at   0.252634  2.746567 -1.790652
      ESP Fit Center  390 is at  -0.039163  2.454770 -1.790652
      ESP Fit Center  391 is at  -0.145968  2.056169 -1.790652
      ESP Fit Center  392 is at   1.049838  1.365770 -1.790652
      ESP Fit Center  393 is at   1.341635  1.657567 -1.790652
      ESP Fit Center  394 is at   1.058743  2.056169 -1.917272
      ESP Fit Center  395 is at   0.854989  2.409080 -1.917272
      ESP Fit Center  396 is at   0.447483  2.409080 -1.917272
      ESP Fit Center  397 is at   0.243729  2.056169 -1.917272
      ESP Fit Center  398 is at   0.447483  1.703257 -1.917272
      ESP Fit Center  399 is at   0.854989  1.703257 -1.917272
      ESP Fit Center  400 is at   0.651236  2.056169 -1.960103
      ESP Fit Center  401 is at   2.122224 -0.566044  2.379925
      ESP Fit Center  402 is at   2.535507 -0.566044  2.343768
      ESP Fit Center  403 is at   2.328865 -0.208130  2.343768
      ESP Fit Center  404 is at   1.915583 -0.208130  2.343768
      ESP Fit Center  405 is at   1.708941 -0.566044  2.343768
      ESP Fit Center  406 is at   1.915583 -0.923957  2.343768
      ESP Fit Center  407 is at   2.328865 -0.923957  2.343768
      ESP Fit Center  408 is at   2.936232 -0.566044  2.236394
      ESP Fit Center  409 is at   2.827176 -0.159040  2.236394
      ESP Fit Center  410 is at   2.529228  0.138908  2.236394
      ESP Fit Center  411 is at   2.122224  0.247964  2.236394
      ESP Fit Center  412 is at   1.715220  0.138908  2.236394
      ESP Fit Center  413 is at   1.417272 -0.159040  2.236394
      ESP Fit Center  414 is at   1.308216 -0.566044  2.236394
      ESP Fit Center  415 is at   1.417272 -0.973048  2.236394
      ESP Fit Center  416 is at   1.715220 -1.270995  2.236394
      ESP Fit Center  417 is at   2.122224 -1.380052  2.236394
      ESP Fit Center  418 is at   2.529228 -1.270995  2.236394
      ESP Fit Center  419 is at   2.827176 -0.973048  2.236394
      ESP Fit Center  420 is at   3.312224 -0.566044  2.061066
      ESP Fit Center  421 is at   3.240458 -0.159040  2.061066
      ESP Fit Center  422 is at   3.033817  0.198873  2.061066
      ESP Fit Center  423 is at   2.717224  0.464526  2.061066
      ESP Fit Center  424 is at   2.328865  0.605877  2.061066
      ESP Fit Center  425 is at   1.915583  0.605877  2.061066
      ESP Fit Center  426 is at   1.527224  0.464526  2.061066
      ESP Fit Center  427 is at   1.210631  0.198873  2.061066
      ESP Fit Center  428 is at   1.003990 -0.159040  2.061066
      ESP Fit Center  429 is at   0.932224 -0.566044  2.061066
      ESP Fit Center  430 is at   1.003990 -0.973048  2.061066
      ESP Fit Center  431 is at   1.210631 -1.330961  2.061066
      ESP Fit Center  432 is at   1.527224 -1.596614  2.061066
      ESP Fit Center  433 is at   1.915583 -1.737965  2.061066
      ESP Fit Center  434 is at   2.328865 -1.737965  2.061066
      ESP Fit Center  435 is at   2.717224 -1.596614  2.061066
      ESP Fit Center  436 is at   3.033817 -1.330961  2.061066
      ESP Fit Center  437 is at   3.240458 -0.973048  2.061066
      ESP Fit Center  438 is at   3.652058 -0.566044  1.823111
      ESP Fit Center  439 is at   3.595328 -0.153299  1.823111
      ESP Fit Center  440 is at   3.429344  0.228834  1.823111
      ESP Fit Center  441 is at   3.166417  0.552014  1.823111
      ESP Fit Center  442 is at   2.826047  0.792274  1.823111
      ESP Fit Center  443 is at   2.433478  0.931793  1.823111
      ESP Fit Center  444 is at   2.017824  0.960224  1.823111
      ESP Fit Center  445 is at   1.609914  0.875459  1.823111
      ESP Fit Center  446 is at   1.239999  0.683785  1.823111
      ESP Fit Center  447 is at   0.935514 -1.531504  1.823111
      ESP Fit Center  448 is at   1.239999 -1.815873  1.823111
      ESP Fit Center  449 is at   1.609914 -2.007547  1.823111
      ESP Fit Center  450 is at   2.017824 -2.092312  1.823111
      ESP Fit Center  451 is at   2.433478 -2.063880  1.823111
      ESP Fit Center  452 is at   2.826047 -1.924361  1.823111
      ESP Fit Center  453 is at   3.166417 -1.684102  1.823111
      ESP Fit Center  454 is at   3.429344 -1.360921  1.823111
      ESP Fit Center  455 is at   3.595328 -0.978788  1.823111
      ESP Fit Center  456 is at   3.945410 -0.566044  1.529760
      ESP Fit Center  457 is at   3.896266 -0.145588  1.529760
      ESP Fit Center  458 is at   3.751482  0.252201  1.529760
      ESP Fit Center  459 is at   3.518865  0.605877  1.529760
      ESP Fit Center  460 is at   3.210955  0.896376  1.529760
      ESP Fit Center  461 is at   2.844351  1.108035  1.529760
      ESP Fit Center  462 is at   2.438817  1.229444  1.529760
      ESP Fit Center  463 is at   1.210631 -2.144969  1.529760
      ESP Fit Center  464 is at   1.599328 -2.312637  1.529760
      ESP Fit Center  465 is at   2.016215 -2.386145  1.529760
      ESP Fit Center  466 is at   2.438817 -2.361531  1.529760
      ESP Fit Center  467 is at   2.844351 -2.240122  1.529760
      ESP Fit Center  468 is at   3.210955 -2.028463  1.529760
      ESP Fit Center  469 is at   3.518865 -1.737965  1.529760
      ESP Fit Center  470 is at   3.751482 -1.384288  1.529760
      ESP Fit Center  471 is at   3.896266 -0.986499  1.529760
      ESP Fit Center  472 is at   4.183364 -0.566044  1.189925
      ESP Fit Center  473 is at   4.141173 -0.151139  1.189925
      ESP Fit Center  474 is at   4.016325  0.246779  1.189925
      ESP Fit Center  475 is at   3.813933  0.611420  1.189925
      ESP Fit Center  476 is at   3.542282  0.927856  1.189925
      ESP Fit Center  477 is at   3.212493  1.183131  1.189925
      ESP Fit Center  478 is at   2.838069  1.366795  1.189925
      ESP Fit Center  479 is at   1.214510 -2.416545  1.189925
      ESP Fit Center  480 is at   1.605594 -2.561387  1.189925
      ESP Fit Center  481 is at   2.017829 -2.624539  1.189925
      ESP Fit Center  482 is at   2.434338 -2.603416  1.189925
      ESP Fit Center  483 is at   2.838069 -2.498883  1.189925
      ESP Fit Center  484 is at   3.212493 -2.315219  1.189925
      ESP Fit Center  485 is at   3.542282 -2.059944  1.189925
      ESP Fit Center  486 is at   3.813933 -1.743508  1.189925
      ESP Fit Center  487 is at   4.016325 -1.378867  1.189925
      ESP Fit Center  488 is at   4.141173 -0.980948  1.189925
      ESP Fit Center  489 is at   4.358692 -0.566044  0.813933
      ESP Fit Center  490 is at   4.318277 -0.142789  0.813933
      ESP Fit Center  491 is at   4.198490  0.265168  0.813933
      ESP Fit Center  492 is at   4.003661  0.643082  0.813933
      ESP Fit Center  493 is at   3.740832  0.977296  0.813933
      ESP Fit Center  494 is at   3.419503  1.255730  0.813933
      ESP Fit Center  495 is at   3.051287  1.468319  0.813933
      ESP Fit Center  496 is at   1.803941 -2.779748  0.813933
      ESP Fit Center  497 is at   2.228639 -2.799979  0.813933
      ESP Fit Center  498 is at   2.649491 -2.739470  0.813933
      ESP Fit Center  499 is at   3.051287 -2.600407  0.813933
      ESP Fit Center  500 is at   3.419503 -2.387817  0.813933
      ESP Fit Center  501 is at   3.740832 -2.109384  0.813933
      ESP Fit Center  502 is at   4.003661 -1.775170  0.813933
      ESP Fit Center  503 is at   4.198490 -1.397255  0.813933
      ESP Fit Center  504 is at   4.318277 -0.989298  0.813933
      ESP Fit Center  505 is at   4.466066 -0.566044  0.413208
      ESP Fit Center  506 is at   4.428400 -0.147535  0.413208
      ESP Fit Center  507 is at   4.316611  0.257523  0.413208
      ESP Fit Center  508 is at   4.134293  0.636111  0.413208
      ESP Fit Center  509 is at   3.887305  0.976061  0.413208
      ESP Fit Center  510 is at   3.583586  1.266446  0.413208
      ESP Fit Center  511 is at   3.232897  1.497933  0.413208
      ESP Fit Center  512 is at   1.600670 -2.851121  0.413208
      ESP Fit Center  513 is at   2.017068 -2.907526  0.413208
      ESP Fit Center  514 is at   2.436846 -2.888674  0.413208
      ESP Fit Center  515 is at   2.846511 -2.795170  0.413208
      ESP Fit Center  516 is at   3.232897 -2.630021  0.413208
      ESP Fit Center  517 is at   3.583586 -2.398534  0.413208
      ESP Fit Center  518 is at   3.887305 -2.108148  0.413208
      ESP Fit Center  519 is at   4.134293 -1.768199  0.413208
      ESP Fit Center  520 is at   4.316611 -1.389611  0.413208
      ESP Fit Center  521 is at   4.428400 -0.984553  0.413208
      ESP Fit Center  522 is at   4.502224 -0.566044 -0.000075
      ESP Fit Center  523 is at   4.466066 -0.152761 -0.000075
      ESP Fit Center  524 is at   4.358692  0.247964 -0.000075
      ESP Fit Center  525 is at   4.183364  0.623956 -0.000075
      ESP Fit Center  526 is at   3.945410  0.963791 -0.000075
      ESP Fit Center  527 is at   3.652058  1.257142 -0.000075
      ESP Fit Center  528 is at   3.312224  1.495097 -0.000075
      ESP Fit Center  529 is at   1.708941 -2.909886 -0.000075
      ESP Fit Center  530 is at   2.122224 -2.946044 -0.000075
      ESP Fit Center  531 is at   2.535507 -2.909886 -0.000075
      ESP Fit Center  532 is at   2.936232 -2.802512 -0.000075
      ESP Fit Center  533 is at   3.312224 -2.627184 -0.000075
      ESP Fit Center  534 is at   3.652058 -2.389230 -0.000075
      ESP Fit Center  535 is at   3.945410 -2.095878 -0.000075
      ESP Fit Center  536 is at   4.183364 -1.756044 -0.000075
      ESP Fit Center  537 is at   4.358692 -1.380052 -0.000075
      ESP Fit Center  538 is at   4.466066 -0.979326 -0.000075
      ESP Fit Center  539 is at   4.466066 -0.566044 -0.413357
      ESP Fit Center  540 is at   4.428400 -0.147535 -0.413357
      ESP Fit Center  541 is at   4.316611  0.257523 -0.413357
      ESP Fit Center  542 is at   4.134293  0.636111 -0.413357
      ESP Fit Center  543 is at   3.887305  0.976061 -0.413357
      ESP Fit Center  544 is at   3.583586  1.266446 -0.413357
      ESP Fit Center  545 is at   3.232897  1.497933 -0.413357
      ESP Fit Center  546 is at   1.600670 -2.851121 -0.413357
      ESP Fit Center  547 is at   2.017068 -2.907526 -0.413357
      ESP Fit Center  548 is at   2.436846 -2.888674 -0.413357
      ESP Fit Center  549 is at   2.846511 -2.795170 -0.413357
      ESP Fit Center  550 is at   3.232897 -2.630021 -0.413357
      ESP Fit Center  551 is at   3.583586 -2.398534 -0.413357
      ESP Fit Center  552 is at   3.887305 -2.108148 -0.413357
      ESP Fit Center  553 is at   4.134293 -1.768199 -0.413357
      ESP Fit Center  554 is at   4.316611 -1.389611 -0.413357
      ESP Fit Center  555 is at   4.428400 -0.984553 -0.413357
      ESP Fit Center  556 is at   4.358692 -0.566044 -0.814082
      ESP Fit Center  557 is at   4.318277 -0.142789 -0.814082
      ESP Fit Center  558 is at   4.198490  0.265168 -0.814082
      ESP Fit Center  559 is at   4.003661  0.643082 -0.814082
      ESP Fit Center  560 is at   3.740832  0.977296 -0.814082
      ESP Fit Center  561 is at   3.419503  1.255730 -0.814082
      ESP Fit Center  562 is at   3.051287  1.468319 -0.814082
      ESP Fit Center  563 is at   1.803941 -2.779748 -0.814082
      ESP Fit Center  564 is at   2.228639 -2.799979 -0.814082
      ESP Fit Center  565 is at   2.649491 -2.739470 -0.814082
      ESP Fit Center  566 is at   3.051287 -2.600407 -0.814082
      ESP Fit Center  567 is at   3.419503 -2.387817 -0.814082
      ESP Fit Center  568 is at   3.740832 -2.109384 -0.814082
      ESP Fit Center  569 is at   4.003661 -1.775170 -0.814082
      ESP Fit Center  570 is at   4.198490 -1.397255 -0.814082
      ESP Fit Center  571 is at   4.318277 -0.989298 -0.814082
      ESP Fit Center  572 is at   4.183364 -0.566044 -1.190075
      ESP Fit Center  573 is at   4.141173 -0.151139 -1.190075
      ESP Fit Center  574 is at   4.016325  0.246779 -1.190075
      ESP Fit Center  575 is at   3.813933  0.611420 -1.190075
      ESP Fit Center  576 is at   3.542282  0.927856 -1.190075
      ESP Fit Center  577 is at   3.212493  1.183131 -1.190075
      ESP Fit Center  578 is at   2.838069  1.366795 -1.190075
      ESP Fit Center  579 is at   1.214510 -2.416545 -1.190075
      ESP Fit Center  580 is at   1.605594 -2.561387 -1.190075
      ESP Fit Center  581 is at   2.017829 -2.624539 -1.190075
      ESP Fit Center  582 is at   2.434338 -2.603416 -1.190075
      ESP Fit Center  583 is at   2.838069 -2.498883 -1.190075
      ESP Fit Center  584 is at   3.212493 -2.315219 -1.190075
      ESP Fit Center  585 is at   3.542282 -2.059944 -1.190075
      ESP Fit Center  586 is at   3.813933 -1.743508 -1.190075
      ESP Fit Center  587 is at   4.016325 -1.378867 -1.190075
      ESP Fit Center  588 is at   4.141173 -0.980948 -1.190075
      ESP Fit Center  589 is at   3.945410 -0.566044 -1.529909
      ESP Fit Center  590 is at   3.896266 -0.145588 -1.529909
      ESP Fit Center  591 is at   3.751482  0.252201 -1.529909
      ESP Fit Center  592 is at   3.518865  0.605877 -1.529909
      ESP Fit Center  593 is at   3.210955  0.896376 -1.529909
      ESP Fit Center  594 is at   2.844351  1.108035 -1.529909
      ESP Fit Center  595 is at   2.438817  1.229444 -1.529909
      ESP Fit Center  596 is at   2.016215  1.254057 -1.529909
      ESP Fit Center  597 is at   1.210631 -2.144969 -1.529909
      ESP Fit Center  598 is at   1.599328 -2.312637 -1.529909
      ESP Fit Center  599 is at   2.016215 -2.386145 -1.529909
      ESP Fit Center  600 is at   2.438817 -2.361531 -1.529909
      ESP Fit Center  601 is at   2.844351 -2.240122 -1.529909
      ESP Fit Center  602 is at   3.210955 -2.028463 -1.529909
      ESP Fit Center  603 is at   3.518865 -1.737965 -1.529909
      ESP Fit Center  604 is at   3.751482 -1.384288 -1.529909
      ESP Fit Center  605 is at   3.896266 -0.986499 -1.529909
      ESP Fit Center  606 is at   3.652058 -0.566044 -1.823260
      ESP Fit Center  607 is at   3.595328 -0.153299 -1.823260
      ESP Fit Center  608 is at   3.429344  0.228834 -1.823260
      ESP Fit Center  609 is at   3.166417  0.552014 -1.823260
      ESP Fit Center  610 is at   2.826047  0.792274 -1.823260
      ESP Fit Center  611 is at   2.433478  0.931793 -1.823260
      ESP Fit Center  612 is at   2.017824  0.960224 -1.823260
      ESP Fit Center  613 is at   1.609914  0.875459 -1.823260
      ESP Fit Center  614 is at   1.239999  0.683785 -1.823260
      ESP Fit Center  615 is at   0.935514 -1.531504 -1.823260
      ESP Fit Center  616 is at   1.239999 -1.815873 -1.823260
      ESP Fit Center  617 is at   1.609914 -2.007547 -1.823260
      ESP Fit Center  618 is at   2.017824 -2.092312 -1.823260
      ESP Fit Center  619 is at   2.433478 -2.063880 -1.823260
      ESP Fit Center  620 is at   2.826047 -1.924361 -1.823260
      ESP Fit Center  621 is at   3.166417 -1.684102 -1.823260
      ESP Fit Center  622 is at   3.429344 -1.360921 -1.823260
      ESP Fit Center  623 is at   3.595328 -0.978788 -1.823260
      ESP Fit Center  624 is at   3.312224 -0.566044 -2.061215
      ESP Fit Center  625 is at   3.240458 -0.159040 -2.061215
      ESP Fit Center  626 is at   3.033817  0.198873 -2.061215
      ESP Fit Center  627 is at   2.717224  0.464526 -2.061215
      ESP Fit Center  628 is at   2.328865  0.605877 -2.061215
      ESP Fit Center  629 is at   1.915583  0.605877 -2.061215
      ESP Fit Center  630 is at   1.527224  0.464526 -2.061215
      ESP Fit Center  631 is at   1.210631  0.198873 -2.061215
      ESP Fit Center  632 is at   1.003990 -0.159040 -2.061215
      ESP Fit Center  633 is at   0.932224 -0.566044 -2.061215
      ESP Fit Center  634 is at   1.003990 -0.973048 -2.061215
      ESP Fit Center  635 is at   1.210631 -1.330961 -2.061215
      ESP Fit Center  636 is at   1.527224 -1.596614 -2.061215
      ESP Fit Center  637 is at   1.915583 -1.737965 -2.061215
      ESP Fit Center  638 is at   2.328865 -1.737965 -2.061215
      ESP Fit Center  639 is at   2.717224 -1.596614 -2.061215
      ESP Fit Center  640 is at   3.033817 -1.330961 -2.061215
      ESP Fit Center  641 is at   3.240458 -0.973048 -2.061215
      ESP Fit Center  642 is at   2.936232 -0.566044 -2.236543
      ESP Fit Center  643 is at   2.827176 -0.159040 -2.236543
      ESP Fit Center  644 is at   2.529228  0.138908 -2.236543
      ESP Fit Center  645 is at   2.122224  0.247964 -2.236543
      ESP Fit Center  646 is at   1.715220  0.138908 -2.236543
      ESP Fit Center  647 is at   1.417272 -0.159040 -2.236543
      ESP Fit Center  648 is at   1.308216 -0.566044 -2.236543
      ESP Fit Center  649 is at   1.417272 -0.973048 -2.236543
      ESP Fit Center  650 is at   1.715220 -1.270995 -2.236543
      ESP Fit Center  651 is at   2.122224 -1.380052 -2.236543
      ESP Fit Center  652 is at   2.529228 -1.270995 -2.236543
      ESP Fit Center  653 is at   2.827176 -0.973048 -2.236543
      ESP Fit Center  654 is at   2.535507 -0.566044 -2.343917
      ESP Fit Center  655 is at   2.328865 -0.208130 -2.343917
      ESP Fit Center  656 is at   1.915583 -0.208130 -2.343917
      ESP Fit Center  657 is at   1.708941 -0.566044 -2.343917
      ESP Fit Center  658 is at   1.915583 -0.923957 -2.343917
      ESP Fit Center  659 is at   2.328865 -0.923957 -2.343917
      ESP Fit Center  660 is at   2.122224 -0.566044 -2.380075
      ESP Fit Center  661 is at  -3.654304  0.492355  1.622621
      ESP Fit Center  662 is at  -3.871712  0.115793  1.622621
      ESP Fit Center  663 is at  -3.856896  0.843255  1.454789
      ESP Fit Center  664 is at  -4.164358  0.535793  1.454789
      ESP Fit Center  665 is at  -4.276896  0.115793  1.454789
      ESP Fit Center  666 is at  -4.164358 -0.304207  1.454789
      ESP Fit Center  667 is at  -3.856896 -0.611668  1.454789
      ESP Fit Center  668 is at  -3.761991  1.258384  1.187805
      ESP Fit Center  669 is at  -4.152790  1.063790  1.187805
      ESP Fit Center  670 is at  -4.446903  0.741163  1.187805
      ESP Fit Center  671 is at  -4.604609  0.334077  1.187805
      ESP Fit Center  672 is at  -4.604609 -0.102490  1.187805
      ESP Fit Center  673 is at  -4.446903 -0.509576  1.187805
      ESP Fit Center  674 is at  -4.152790 -0.832203  1.187805
      ESP Fit Center  675 is at  -3.761991 -1.026797  1.187805
      ESP Fit Center  676 is at  -3.760647  1.534238  0.839866
      ESP Fit Center  677 is at  -4.164358  1.375793  0.839866
      ESP Fit Center  678 is at  -4.503430  1.105392  0.839866
      ESP Fit Center  679 is at  -4.747736  0.747061  0.839866
      ESP Fit Center  680 is at  -4.875569  0.332638  0.839866
      ESP Fit Center  681 is at  -4.875569 -0.101051  0.839866
      ESP Fit Center  682 is at  -4.747736 -0.515474  0.839866
      ESP Fit Center  683 is at  -4.503430 -0.873805  0.839866
      ESP Fit Center  684 is at  -4.164358 -1.144207  0.839866
      ESP Fit Center  685 is at  -3.856896  1.683255  0.434682
      ESP Fit Center  686 is at  -4.248274  1.521141  0.434682
      ESP Fit Center  687 is at  -4.584358  1.263255  0.434682
      ESP Fit Center  688 is at  -4.842244  0.927171  0.434682
      ESP Fit Center  689 is at  -5.004358  0.535793  0.434682
      ESP Fit Center  690 is at  -5.059652  0.115793  0.434682
      ESP Fit Center  691 is at  -5.004358 -0.304207  0.434682
      ESP Fit Center  692 is at  -4.842244 -0.695584  0.434682
      ESP Fit Center  693 is at  -4.584358 -1.031668  0.434682
      ESP Fit Center  694 is at  -4.248274 -1.289554  0.434682
      ESP Fit Center  695 is at  -3.751697  1.766036 -0.000134
      ESP Fit Center  696 is at  -4.152206  1.635903 -0.000134
      ESP Fit Center  697 is at  -4.507769  1.410256 -0.000134
      ESP Fit Center  698 is at  -4.796045  1.103273 -0.000134
      ESP Fit Center  699 is at  -4.998921  0.734243 -0.000134
      ESP Fit Center  700 is at  -5.103649  0.326353 -0.000134
      ESP Fit Center  701 is at  -5.103649 -0.094766 -0.000134
      ESP Fit Center  702 is at  -4.998921 -0.502656 -0.000134
      ESP Fit Center  703 is at  -4.796045 -0.871686 -0.000134
      ESP Fit Center  704 is at  -4.507769 -1.178669 -0.000134
      ESP Fit Center  705 is at  -4.152206 -1.404316 -0.000134
      ESP Fit Center  706 is at  -3.856896  1.683255 -0.434950
      ESP Fit Center  707 is at  -4.248274  1.521141 -0.434950
      ESP Fit Center  708 is at  -4.584358  1.263255 -0.434950
      ESP Fit Center  709 is at  -4.842244  0.927171 -0.434950
      ESP Fit Center  710 is at  -5.004358  0.535793 -0.434950
      ESP Fit Center  711 is at  -5.059652  0.115793 -0.434950
      ESP Fit Center  712 is at  -5.004358 -0.304207 -0.434950
      ESP Fit Center  713 is at  -4.842244 -0.695584 -0.434950
      ESP Fit Center  714 is at  -4.584358 -1.031668 -0.434950
      ESP Fit Center  715 is at  -4.248274 -1.289554 -0.434950
      ESP Fit Center  716 is at  -3.760647  1.534238 -0.840134
      ESP Fit Center  717 is at  -4.164358  1.375793 -0.840134
      ESP Fit Center  718 is at  -4.503430  1.105392 -0.840134
      ESP Fit Center  719 is at  -4.747736  0.747061 -0.840134
      ESP Fit Center  720 is at  -4.875569  0.332638 -0.840134
      ESP Fit Center  721 is at  -4.875569 -0.101051 -0.840134
      ESP Fit Center  722 is at  -4.747736 -0.515474 -0.840134
      ESP Fit Center  723 is at  -4.503430 -0.873805 -0.840134
      ESP Fit Center  724 is at  -4.164358 -1.144207 -0.840134
      ESP Fit Center  725 is at  -3.761991  1.258384 -1.188073
      ESP Fit Center  726 is at  -4.152790  1.063790 -1.188073
      ESP Fit Center  727 is at  -4.446903  0.741163 -1.188073
      ESP Fit Center  728 is at  -4.604609  0.334077 -1.188073
      ESP Fit Center  729 is at  -4.604609 -0.102490 -1.188073
      ESP Fit Center  730 is at  -4.446903 -0.509576 -1.188073
      ESP Fit Center  731 is at  -4.152790 -0.832203 -1.188073
      ESP Fit Center  732 is at  -3.761991 -1.026797 -1.188073
      ESP Fit Center  733 is at  -3.856896  0.843255 -1.455057
      ESP Fit Center  734 is at  -4.164358  0.535793 -1.455057
      ESP Fit Center  735 is at  -4.276896  0.115793 -1.455057
      ESP Fit Center  736 is at  -4.164358 -0.304207 -1.455057
      ESP Fit Center  737 is at  -3.856896 -0.611668 -1.455057
      ESP Fit Center  738 is at  -3.654304  0.492355 -1.622889
      ESP Fit Center  739 is at  -3.871712  0.115793 -1.622889
      ESP Fit Center  740 is at  -2.889704 -2.162231  1.622280
      ESP Fit Center  741 is at  -2.672296 -2.538793  1.622280
      ESP Fit Center  742 is at  -3.294888 -2.162231  1.454448
      ESP Fit Center  743 is at  -3.182349 -2.582231  1.454448
      ESP Fit Center  744 is at  -2.874888 -2.889692  1.454448
      ESP Fit Center  745 is at  -2.454888 -3.002231  1.454448
[...]
 4299 Fit       0.001896
 4300 Fit       0.002938
 4301 Fit       0.004509
 4302 Fit       0.006828
 4303 Fit       0.010173
 4304 Fit       0.001511
 4305 Fit      -0.000792
 4306 Fit      -0.002287
 4307 Fit      -0.003166
 4308 Fit      -0.003564
 4309 Fit      -0.003594
 4310 Fit      -0.003354
 4311 Fit      -0.002931
 4312 Fit      -0.002403
 4313 Fit      -0.001838
 4314 Fit      -0.001287
 4315 Fit      -0.000787
 4316 Fit      -0.000353
 4317 Fit      -0.000093
 4318 Fit       0.000256
 4319 Fit       0.000632
 4320 Fit       0.001120
 4321 Fit       0.001833
 4322 Fit       0.002913
 4323 Fit       0.004542
 4324 Fit       0.006940
 4325 Fit       0.010385
 4326 Fit       0.002010
 4327 Fit      -0.000480
 4328 Fit      -0.002119
 4329 Fit      -0.003105
 4330 Fit      -0.003583
 4331 Fit      -0.003668
 4332 Fit      -0.003463
 4333 Fit      -0.003060
 4334 Fit      -0.002540
 4335 Fit      -0.001974
 4336 Fit      -0.001419
 4337 Fit      -0.000912
 4338 Fit      -0.000472
 4339 Fit      -0.000426
 4340 Fit      -0.000073
 4341 Fit       0.000309
 4342 Fit       0.000803
 4343 Fit       0.001519
 4344 Fit       0.002594
 4345 Fit       0.004193
 4346 Fit       0.006510
 4347 Fit       0.009759
 4348 Fit       0.002028
 4349 Fit      -0.000445
 4350 Fit      -0.002123
 4351 Fit      -0.003167
 4352 Fit      -0.003706
 4353 Fit      -0.003847
 4354 Fit      -0.003690
 4355 Fit      -0.003324
 4356 Fit      -0.002832
 4357 Fit      -0.002286
 4358 Fit      -0.001743
 4359 Fit      -0.001243
 4360 Fit      -0.000806
 4361 Fit      -0.000953
 4362 Fit      -0.000591
 4363 Fit      -0.000197
 4364 Fit       0.000312
 4365 Fit       0.001044
 4366 Fit       0.002127
 4367 Fit       0.003704
 4368 Fit       0.005921
 4369 Fit       0.008887
 4370 Fit       0.002233
 4371 Fit      -0.000232
 4372 Fit      -0.002007
 4373 Fit      -0.003182
 4374 Fit      -0.003851
 4375 Fit      -0.004108
 4376 Fit      -0.004044
 4377 Fit      -0.003749
 4378 Fit      -0.003306
 4379 Fit      -0.002791
 4380 Fit      -0.002266
 4381 Fit      -0.001774
 4382 Fit      -0.001337
 4383 Fit      -0.001636
 4384 Fit      -0.001270
 4385 Fit      -0.000869
 4386 Fit      -0.000355
 4387 Fit       0.000367
 4388 Fit       0.001405
 4389 Fit       0.002861
 4390 Fit       0.004803
 4391 Fit       0.007199
 4392 Fit       0.001704
 4393 Fit      -0.000414
 4394 Fit      -0.002097
 4395 Fit      -0.003304
 4396 Fit      -0.004058
 4397 Fit      -0.004416
 4398 Fit      -0.004450
 4399 Fit      -0.004241
 4400 Fit      -0.003868
 4401 Fit      -0.003405
 4402 Fit      -0.002916
 4403 Fit      -0.002445
 4404 Fit      -0.002019
 4405 Fit      -0.002427
 4406 Fit      -0.002044
 4407 Fit      -0.001618
 4408 Fit      -0.001071
 4409 Fit      -0.000314
 4410 Fit       0.000736
 4411 Fit       0.002127
 4412 Fit       0.003807
 4413 Fit       0.005528
 4414 Fit      -0.000200
 4415 Fit      -0.001750
 4416 Fit      -0.003074
 4417 Fit      -0.004043
 4418 Fit      -0.004631
 4419 Fit      -0.004867
 4420 Fit      -0.004815
 4421 Fit      -0.004552
 4422 Fit      -0.004157
 4423 Fit      -0.003704
 4424 Fit      -0.003247
 4425 Fit      -0.002819
 4426 Fit      -0.003269
 4427 Fit      -0.002874
 4428 Fit      -0.002430
 4429 Fit      -0.001865
 4430 Fit      -0.001112
 4431 Fit      -0.000130
 4432 Fit       0.001037
 4433 Fit       0.002190
 4434 Fit       0.002905
 4435 Fit      -0.001183
 4436 Fit      -0.001973
 4437 Fit      -0.003032
 4438 Fit      -0.004021
 4439 Fit      -0.004761
 4440 Fit      -0.005189
 4441 Fit      -0.005315
 4442 Fit      -0.005193
 4443 Fit      -0.004898
 4444 Fit      -0.004506
 4445 Fit      -0.004080
 4446 Fit      -0.003664
 4447 Fit      -0.004105
 4448 Fit      -0.003706
 4449 Fit      -0.003255
 4450 Fit      -0.002697
 4451 Fit      -0.001998
 4452 Fit      -0.001183
 4453 Fit      -0.000391
 4454 Fit       0.000087
 4455 Fit      -0.000136
 4456 Fit      -0.001310
 4457 Fit      -0.003202
 4458 Fit      -0.003520
 4459 Fit      -0.004184
 4460 Fit      -0.004882
 4461 Fit      -0.005415
 4462 Fit      -0.005700
 4463 Fit      -0.005734
 4464 Fit      -0.005563
 4465 Fit      -0.005257
 4466 Fit      -0.004884
 4467 Fit      -0.004493
 4468 Fit      -0.004879
 4469 Fit      -0.004474
 4470 Fit      -0.004015
 4471 Fit      -0.003473
 4472 Fit      -0.002866
 4473 Fit      -0.002304
 4474 Fit      -0.002014
 4475 Fit      -0.002254
 4476 Fit      -0.003104
 4477 Fit      -0.004315
 4478 Fit      -0.005531
 4479 Fit      -0.005687
 4480 Fit      -0.004888
 4481 Fit      -0.004738
 4482 Fit      -0.005042
 4483 Fit      -0.005513
 4484 Fit      -0.005917
 4485 Fit      -0.006126
 4486 Fit      -0.006117
 4487 Fit      -0.005926
 4488 Fit      -0.005621
 4489 Fit      -0.005261
 4490 Fit      -0.005546
 4491 Fit      -0.005148
 4492 Fit      -0.004705
 4493 Fit      -0.004231
 4494 Fit      -0.003813
 4495 Fit      -0.003625
 4496 Fit      -0.003842
 4497 Fit      -0.004481
 4498 Fit      -0.005369
 4499 Fit      -0.006339
 4500 Fit      -0.007288
 4501 Fit      -0.008007
 4502 Fit      -0.008227
 4503 Fit      -0.007838
 4504 Fit      -0.007034
 4505 Fit      -0.006243
 4506 Fit      -0.005818
 4507 Fit      -0.005821
 4508 Fit      -0.006074
 4509 Fit      -0.006346
 4510 Fit      -0.006480
 4511 Fit      -0.006427
 4512 Fit      -0.006216
 4513 Fit      -0.005907
 4514 Fit      -0.006073
 4515 Fit      -0.005680
 4516 Fit      -0.005272
 4517 Fit      -0.004944
 4518 Fit      -0.004866
 4519 Fit      -0.005167
 4520 Fit      -0.005788
 4521 Fit      -0.006538
 4522 Fit      -0.007175
 4523 Fit      -0.007432
 4524 Fit      -0.007217
 4525 Fit      -0.006776
 4526 Fit      -0.006488
 4527 Fit      -0.006492
 4528 Fit      -0.006645
 4529 Fit      -0.006734
 4530 Fit      -0.006652
 4531 Fit      -0.006412
 4532 Fit      -0.006445
 4533 Fit      -0.006081
 4534 Fit      -0.005805
 4535 Fit      -0.005825
 4536 Fit      -0.006213
 4537 Fit      -0.006743
 4538 Fit      -0.007048
 4539 Fit      -0.006989
 4540 Fit      -0.006848
 4541 Fit      -0.006856
 4542 Fit      -0.006880
 4543 Fit      -0.006744
 4544 Fit      -0.006674
 4545 Fit      -0.006419
 4546 Fit      -0.006562
 4547 Fit      -0.006886
 4548 Fit      -0.006944
 4549 Fit      -0.006904
 4550 Fit      -0.006797
 4551 Fit       0.004552
 4552 Fit       0.005245
 4553 Fit       0.005507
 4554 Fit       0.005346
 4555 Fit       0.005518
 4556 Fit       0.006313
 4557 Fit       0.006847
 4558 Fit       0.007152
 4559 Fit       0.007238
 4560 Fit       0.007105
 4561 Fit       0.006731
 4562 Fit       0.006889
 4563 Fit       0.007463
 4564 Fit       0.007929
 4565 Fit       0.008284
 4566 Fit       0.008516
 4567 Fit       0.008625
 4568 Fit       0.008622
 4569 Fit       0.008530
 4570 Fit       0.008351
 4571 Fit       0.008308
 4572 Fit       0.008534
 4573 Fit       0.008823
 4574 Fit       0.009116
 4575 Fit       0.009368
 4576 Fit       0.009556
 4577 Fit       0.009677
 4578 Fit       0.009748
 4579 Fit       0.009806
 4580 Fit       0.009906
 4581 Fit       0.010112
 4582 Fit       0.009531
 4583 Fit       0.009528
 4584 Fit       0.009689
 4585 Fit       0.009905
 4586 Fit       0.010115
 4587 Fit       0.010287
 4588 Fit       0.010418
 4589 Fit       0.010530
 4590 Fit       0.010671
 4591 Fit       0.010922
 4592 Fit       0.011413
 4593 Fit       0.010644
 4594 Fit       0.010174
 4595 Fit       0.010097
 4596 Fit       0.010204
 4597 Fit       0.010380
 4598 Fit       0.010563
 4599 Fit       0.010723
 4600 Fit       0.010858
 4601 Fit       0.010988
 4602 Fit       0.011164
 4603 Fit       0.011472
 4604 Fit       0.012060
 4605 Fit       0.010528
 4606 Fit       0.010290
 4607 Fit       0.010314
 4608 Fit       0.010454
 4609 Fit       0.010628
 4610 Fit       0.010794
 4611 Fit       0.010938
 4612 Fit       0.011068
 4613 Fit       0.011218
 4614 Fit       0.011453
 4615 Fit       0.011885
 4616 Fit       0.012704
 4617 Fit       0.010644
 4618 Fit       0.010174
 4619 Fit       0.010097
 4620 Fit       0.010204
 4621 Fit       0.010380
 4622 Fit       0.010563
 4623 Fit       0.010723
 4624 Fit       0.010858
 4625 Fit       0.010988
 4626 Fit       0.011163
 4627 Fit       0.011472
 4628 Fit       0.012060
 4629 Fit       0.009531
 4630 Fit       0.009528
 4631 Fit       0.009688
 4632 Fit       0.009905
 4633 Fit       0.010114
 4634 Fit       0.010287
 4635 Fit       0.010418
 4636 Fit       0.010530
 4637 Fit       0.010670
 4638 Fit       0.010922
 4639 Fit       0.011413
 4640 Fit       0.008307
 4641 Fit       0.008533
 4642 Fit       0.008823
 4643 Fit       0.009116
 4644 Fit       0.009368
 4645 Fit       0.009556
 4646 Fit       0.009677
 4647 Fit       0.009748
 4648 Fit       0.009805
 4649 Fit       0.009906
 4650 Fit       0.010112
 4651 Fit       0.006888
 4652 Fit       0.007463
 4653 Fit       0.007929
 4654 Fit       0.008284
 4655 Fit       0.008516
 4656 Fit       0.008624
 4657 Fit       0.008622
 4658 Fit       0.008529
 4659 Fit       0.008351
 4660 Fit       0.005518
 4661 Fit       0.006313
 4662 Fit       0.006847
 4663 Fit       0.007152
 4664 Fit       0.007237
 4665 Fit       0.007105
 4666 Fit       0.006731
 4667 Fit       0.004551
 4668 Fit       0.005245
 4669 Fit       0.005506
 4670 Fit       0.005346
 4671 Fit       0.004843
 4672 Fit       0.005231
 4673 Fit       0.005252
 4674 Fit       0.004919
 4675 Fit       0.006447
 4676 Fit       0.006824
 4677 Fit       0.007023
 4678 Fit       0.007057
 4679 Fit       0.006930
 4680 Fit       0.006644
 4681 Fit       0.006186
 4682 Fit       0.008205
 4683 Fit       0.008331
 4684 Fit       0.008429
 4685 Fit       0.008472
 4686 Fit       0.008444
 4687 Fit       0.008348
 4688 Fit       0.008207
 4689 Fit       0.008057
 4690 Fit       0.009972
 4691 Fit       0.009687
 4692 Fit       0.009573
 4693 Fit       0.009548
 4694 Fit       0.009550
 4695 Fit       0.009539
 4696 Fit       0.009505
 4697 Fit       0.009460
 4698 Fit       0.009444
 4699 Fit       0.009529
 4700 Fit       0.009812
 4701 Fit       0.011462
 4702 Fit       0.010814
 4703 Fit       0.010503
 4704 Fit       0.010373
 4705 Fit       0.010323
 4706 Fit       0.010299
 4707 Fit       0.010275
 4708 Fit       0.010259
 4709 Fit       0.010288
 4710 Fit       0.010437
 4711 Fit       0.010836
 4712 Fit       0.011695
 4713 Fit       0.012402
 4714 Fit       0.011527
 4715 Fit       0.011089
 4716 Fit       0.010884
 4717 Fit       0.010795
 4718 Fit       0.010754
 4719 Fit       0.010731
 4720 Fit       0.010721
 4721 Fit       0.010752
 4722 Fit       0.010885
 4723 Fit       0.011233
 4724 Fit       0.011989
 4725 Fit       0.012170
 4726 Fit       0.011492
 4727 Fit       0.011155
 4728 Fit       0.010998
 4729 Fit       0.010928
 4730 Fit       0.010893
 4731 Fit       0.010874
 4732 Fit       0.010878
 4733 Fit       0.010940
 4734 Fit       0.011135
 4735 Fit       0.011591
 4736 Fit       0.012537
 4737 Fit       0.012402
 4738 Fit       0.011527
 4739 Fit       0.011089
 4740 Fit       0.010884
 4741 Fit       0.010795
 4742 Fit       0.010754
 4743 Fit       0.010730
 4744 Fit       0.010721
 4745 Fit       0.010752
 4746 Fit       0.010885
 4747 Fit       0.011233
 4748 Fit       0.011989
 4749 Fit       0.011462
 4750 Fit       0.010814
 4751 Fit       0.010503
 4752 Fit       0.010372
 4753 Fit       0.010323
 4754 Fit       0.010299
 4755 Fit       0.010275
 4756 Fit       0.010259
 4757 Fit       0.010288
 4758 Fit       0.010437
 4759 Fit       0.010836
 4760 Fit       0.011695
 4761 Fit       0.009972
 4762 Fit       0.009687
 4763 Fit       0.009573
 4764 Fit       0.009548
 4765 Fit       0.009550
 4766 Fit       0.009539
 4767 Fit       0.009505
 4768 Fit       0.009460
 4769 Fit       0.009444
 4770 Fit       0.009528
 4771 Fit       0.009812
 4772 Fit       0.008205
 4773 Fit       0.008331
 4774 Fit       0.008429
 4775 Fit       0.008472
 4776 Fit       0.008444
 4777 Fit       0.008348
 4778 Fit       0.008207
 4779 Fit       0.008056
 4780 Fit       0.006446
 4781 Fit       0.006824
 4782 Fit       0.007022
 4783 Fit       0.007057
 4784 Fit       0.006930
 4785 Fit       0.006644
 4786 Fit       0.006186
 4787 Fit       0.004842
 4788 Fit       0.005231
 4789 Fit       0.005252
 4790 Fit       0.004919
 4791 Fit       0.004242
 4792 Fit       0.003936
 4793 Fit       0.002974
 4794 Fit       0.001357
 4795 Fit       0.006179
 4796 Fit       0.006046
 4797 Fit       0.005502
 4798 Fit       0.004510
 4799 Fit       0.003000
 4800 Fit       0.008030
 4801 Fit       0.007889
 4802 Fit       0.007533
 4803 Fit       0.006924
 4804 Fit       0.005988
 4805 Fit       0.004631
 4806 Fit       0.002733
 4807 Fit       0.010057
 4808 Fit       0.009607
 4809 Fit       0.009177
 4810 Fit       0.008686
 4811 Fit       0.008048
 4812 Fit       0.007175
 4813 Fit       0.005976
 4814 Fit       0.004335
 4815 Fit       0.011085
 4816 Fit       0.010396
 4817 Fit       0.009811
 4818 Fit       0.009192
 4819 Fit       0.008429
 4820 Fit       0.007425
 4821 Fit       0.006074
 4822 Fit       0.004242
 4823 Fit       0.012301
 4824 Fit       0.011333
 4825 Fit       0.010633
 4826 Fit       0.010006
 4827 Fit       0.009321
 4828 Fit       0.008476
 4829 Fit       0.007375
 4830 Fit       0.005913
 4831 Fit       0.003941
 4832 Fit       0.012224
 4833 Fit       0.011323
 4834 Fit       0.010642
 4835 Fit       0.010007
 4836 Fit       0.009298
 4837 Fit       0.008420
 4838 Fit       0.007280
 4839 Fit       0.005772
 4840 Fit       0.003746
 4841 Fit       0.012301
 4842 Fit       0.011333
 4843 Fit       0.010633
 4844 Fit       0.010006
 4845 Fit       0.009321
 4846 Fit       0.008476
 4847 Fit       0.007375
 4848 Fit       0.005913
 4849 Fit       0.003941
 4850 Fit       0.011085
 4851 Fit       0.010396
 4852 Fit       0.009811
 4853 Fit       0.009192
 4854 Fit       0.008429
 4855 Fit       0.007425
 4856 Fit       0.006074
 4857 Fit       0.004242
 4858 Fit       0.010057
 4859 Fit       0.009607
 4860 Fit       0.009177
 4861 Fit       0.008686
 4862 Fit       0.008048
 4863 Fit       0.007175
 4864 Fit       0.005975
 4865 Fit       0.004335
 4866 Fit       0.008029
 4867 Fit       0.007889
 4868 Fit       0.007533
 4869 Fit       0.006924
 4870 Fit       0.005987
 4871 Fit       0.004631
 4872 Fit       0.002733
 4873 Fit       0.006179
 4874 Fit       0.006046
 4875 Fit       0.005501
 4876 Fit       0.004510
 4877 Fit       0.003000
 4878 Fit       0.004242
 4879 Fit       0.003936
 4880 Fit       0.002974
 4881 Fit       0.001356
 4882 Fit      -0.004324
 4883 Fit      -0.001987
 4884 Fit      -0.000368
 4885 Fit       0.000546
 4886 Fit      -0.007806
 4887 Fit      -0.004376
 4888 Fit      -0.001711
 4889 Fit       0.000258
 4890 Fit       0.001641
 4891 Fit       0.002538
 4892 Fit       0.003017
 4893 Fit      -0.007733
 4894 Fit      -0.003932
 4895 Fit      -0.001097
 4896 Fit       0.001004
 4897 Fit       0.002547
 4898 Fit       0.003668
 4899 Fit       0.004482
 4900 Fit       0.005083
 4901 Fit      -0.007474
 4902 Fit      -0.003542
 4903 Fit      -0.000656
 4904 Fit       0.001495
 4905 Fit       0.003114
 4906 Fit       0.004346
 4907 Fit       0.005313
 4908 Fit       0.006128
 4909 Fit       0.006912
 4910 Fit      -0.005260
 4911 Fit      -0.001722
 4912 Fit       0.000869
 4913 Fit       0.002808
 4914 Fit       0.004286
 4915 Fit       0.005445
 4916 Fit       0.006411
 4917 Fit       0.007317
 4918 Fit       0.008323
 4919 Fit       0.009648
 4920 Fit      -0.007362
 4921 Fit      -0.003171
 4922 Fit      -0.000152
 4923 Fit       0.002093
 4924 Fit       0.003800
 4925 Fit       0.005129
 4926 Fit       0.006209
 4927 Fit       0.007160
 4928 Fit       0.008121
 4929 Fit       0.009279
 4930 Fit      -0.008514
 4931 Fit      -0.003996
 4932 Fit      -0.000764
 4933 Fit       0.001632
 4934 Fit       0.003451
 4935 Fit       0.004865
 4936 Fit       0.006001
 4937 Fit       0.006977
 4938 Fit       0.007917
 4939 Fit       0.008982
 4940 Fit       0.010413
 4941 Fit      -0.007362
 4942 Fit      -0.003172
 4943 Fit      -0.000152
 4944 Fit       0.002093
 4945 Fit       0.003800
 4946 Fit       0.005129
 4947 Fit       0.006209
 4948 Fit       0.007160
 4949 Fit       0.008121
 4950 Fit       0.009279
 4951 Fit      -0.005261
 4952 Fit      -0.001722
 4953 Fit       0.000868
 4954 Fit       0.002807
 4955 Fit       0.004285
 4956 Fit       0.005445
 4957 Fit       0.006411
 4958 Fit       0.007317
 4959 Fit       0.008323
 4960 Fit       0.009648
 4961 Fit      -0.007475
 4962 Fit      -0.003543
 4963 Fit      -0.000657
 4964 Fit       0.001495
 4965 Fit       0.003114
 4966 Fit       0.004346
 4967 Fit       0.005312
 4968 Fit       0.006128
 4969 Fit       0.006911
 4970 Fit      -0.007734
 4971 Fit      -0.003934
 4972 Fit      -0.001098
 4973 Fit       0.001003
 4974 Fit       0.002546
 4975 Fit       0.003667
 4976 Fit       0.004482
 4977 Fit       0.005082
 4978 Fit      -0.007807
 4979 Fit      -0.004377
 4980 Fit      -0.001712
 4981 Fit       0.000257
 4982 Fit       0.001640
 4983 Fit       0.002537
 4984 Fit       0.003016
 4985 Fit      -0.004325
 4986 Fit      -0.001989
 4987 Fit      -0.000369
 4988 Fit       0.000545
 4989 Fit       0.004856
 4990 Fit       0.003424
 4991 Fit       0.007089
 4992 Fit       0.006440
 4993 Fit       0.004351
 4994 Fit       0.008880
 4995 Fit       0.008686
 4996 Fit       0.007218
 4997 Fit       0.004530
 4998 Fit       0.010395
 4999 Fit       0.009418
 5000 Fit       0.007400
 5001 Fit       0.004342
 5002 Fit       0.011562
 5003 Fit       0.010771
 5004 Fit       0.008997
 5005 Fit       0.006243
 5006 Fit       0.012273
 5007 Fit       0.011649
 5008 Fit       0.010120
 5009 Fit       0.007692
 5010 Fit       0.004332
 5011 Fit       0.012510
 5012 Fit       0.011961
 5013 Fit       0.010548
 5014 Fit       0.008277
 5015 Fit       0.005120
 5016 Fit       0.012272
 5017 Fit       0.011648
 5018 Fit       0.010119
 5019 Fit       0.007691
 5020 Fit       0.004331
 5021 Fit       0.011560
 5022 Fit       0.010769
 5023 Fit       0.008994
 5024 Fit       0.006240
 5025 Fit       0.010391
 5026 Fit       0.009415
 5027 Fit       0.007396
 5028 Fit       0.004337
 5029 Fit       0.008875
 5030 Fit       0.008682
 5031 Fit       0.007213
 5032 Fit       0.004524
 5033 Fit       0.007083
 5034 Fit       0.006434
 5035 Fit       0.004344
 5036 Fit       0.004849
 5037 Fit       0.003417
 -----------------------------------------------------------------
 Leave Link  602 at Thu Nov  2 13:05:51 2023, MaxMem=   134217728 cpu:               0.4 elap:               0.4

 Test job not archived.
 1\1\GINC-LAC-209\FOpt\RHF\6-31G(d)\C6H5Cl1O1\RAHNAMOU\02-Nov-2023\0\\#
 HF/6-31G* SCF=tight Pop=MK iop(6/33=2) iop(6/42=6) opt\\mobley_1178614
 \\0,1\C,1.8836585546,-1.0359609921,-0.0964284013\C,2.9241444456,-1.632
 3743252,0.6039863221\C,2.8855136849,-1.6553232966,1.9835939248\C,1.815
 3086604,-1.0864875086,2.653948705\C,0.7717246728,-0.4886594516,1.96257
 76353\C,0.8189471763,-0.4701340596,0.5730618935\O,-0.2895936446,0.0776
 89387,2.5581616757\Cl,1.7762396298,-1.1210666268,4.4035268453\H,1.9031
 51271,-1.0122432226,-1.1709573243\H,3.7536464125,-2.0732236868,0.08299
 11353\H,3.6763634497,-2.1097356395,2.5500261157\H,0.0069062318,-0.0052
 997204,0.046021617\H,-0.2290105448,0.0138191429,3.502489856\\Version=E
 S64L-G16RevC.01\State=1-A\HF=-764.4586821\RMSD=9.844e-09\RMSF=8.392e-0
 5\Dipole=0.3079561,-0.1585547,-0.3564234\Quadrupole=-0.3210563,-2.6240
 124,2.9450688,-1.7152071,-1.9149477,0.847851\PG=C01 [X(C6H5Cl1O1)]\\@


 YOU KNOW YOU'VE SPOKEN TOO LONG WHEN THE AUDIENCE STOPS LOOKING AT
 THEIR WATCHES AND STARTS SHAKING THEM.
 Job cpu time:       0 days  0 hours  0 minutes 41.7 seconds.
 Elapsed time:       0 days  0 hours  0 minutes 41.4 seconds.
 File lengths (MBytes):  RWF=    272 Int=      0 D2E=      0 Chk=     32 Scr=     32
 Normal termination of Gaussian 16 at Thu Nov  2 13:05:51 2023.
