 Entering Gaussian System, Link 0=/opt/software/Gaussian/g16-AVX2-C.01/g16/g16
 Input=mobley_1019269.com
 Output=mobley_1019269.log
 Initial command:
 /opt/software/Gaussian/g16-AVX2-C.01/g16/l1.exe "/mnt/gs21/scratch/rahnamou/Gau-14772.inp" -scrdir="/mnt/gs21/scratch/rahnamou/"
 Entering Link 1 = /opt/software/Gaussian/g16-AVX2-C.01/g16/l1.exe PID=     14781.
  
 Copyright (c) 1988-2019, Gaussian, Inc.  All Rights Reserved.
  
 This is part of the Gaussian(R) 16 program.  It is based on
 the Gaussian(R) 09 system (copyright 2009, Gaussian, Inc.),
 the Gaussian(R) 03 system (copyright 2003, Gaussian, Inc.),
 the Gaussian(R) 98 system (copyright 1998, Gaussian, Inc.),
 the Gaussian(R) 94 system (copyright 1995, Gaussian, Inc.),
 the Gaussian 92(TM) system (copyright 1992, Gaussian, Inc.),
 the Gaussian 90(TM) system (copyright 1990, Gaussian, Inc.),
 the Gaussian 88(TM) system (copyright 1988, Gaussian, Inc.),
 the Gaussian 86(TM) system (copyright 1986, Carnegie Mellon
 University), and the Gaussian 82(TM) system (copyright 1983,
 Carnegie Mellon University). Gaussian is a federally registered
 trademark of Gaussian, Inc.
  
 This software contains proprietary and confidential information,
 including trade secrets, belonging to Gaussian, Inc.
  
 This software is provided under written license and may be
 used, copied, transmitted, or stored only in accord with that
 written license.
  
 The following legend is applicable only to US Government
 contracts under FAR:
  
                    RESTRICTED RIGHTS LEGEND
  
 Use, reproduction and disclosure by the US Government is
 subject to restrictions as set forth in subparagraphs (a)
 and (c) of the Commercial Computer Software - Restricted
 Rights clause in FAR 52.227-19.
  
 Gaussian, Inc.
 340 Quinnipiac St., Bldg. 40, Wallingford CT 06492
  
  
 ---------------------------------------------------------------
 Warning -- This program may not be used in any manner that
 competes with the business of Gaussian, Inc. or will provide
 assistance to any competitor of Gaussian, Inc.  The licensee
 of this program is prohibited from giving any competitor of
 Gaussian, Inc. access to this program.  By using this program,
 the user acknowledges that Gaussian, Inc. is engaged in the
 business of creating and licensing software in the field of
 computational chemistry and represents and warrants to the
 licensee that it is not a competitor of Gaussian, Inc. and that
 it will not use this program in any manner prohibited above.
 ---------------------------------------------------------------
  

 Cite this work as:
 Gaussian 16, Revision C.01,
 M. J. Frisch, G. W. Trucks, H. B. Schlegel, G. E. Scuseria, 
 M. A. Robb, J. R. Cheeseman, G. Scalmani, V. Barone, 
 G. A. Petersson, H. Nakatsuji, X. Li, M. Caricato, A. V. Marenich, 
 J. Bloino, B. G. Janesko, R. Gomperts, B. Mennucci, H. P. Hratchian, 
 J. V. Ortiz, A. F. Izmaylov, J. L. Sonnenberg, D. Williams-Young, 
 F. Ding, F. Lipparini, F. Egidi, J. Goings, B. Peng, A. Petrone, 
 T. Henderson, D. Ranasinghe, V. G. Zakrzewski, J. Gao, N. Rega, 
 G. Zheng, W. Liang, M. Hada, M. Ehara, K. Toyota, R. Fukuda, 
 J. Hasegawa, M. Ishida, T. Nakajima, Y. Honda, O. Kitao, H. Nakai, 
 T. Vreven, K. Throssell, J. A. Montgomery, Jr., J. E. Peralta, 
 F. Ogliaro, M. J. Bearpark, J. J. Heyd, E. N. Brothers, K. N. Kudin, 
 V. N. Staroverov, T. A. Keith, R. Kobayashi, J. Normand, 
 K. Raghavachari, A. P. Rendell, J. C. Burant, S. S. Iyengar, 
 J. Tomasi, M. Cossi, J. M. Millam, M. Klene, C. Adamo, R. Cammi, 
 J. W. Ochterski, R. L. Martin, K. Morokuma, O. Farkas, 
 J. B. Foresman, and D. J. Fox, Gaussian, Inc., Wallingford CT, 2019.
 
 ******************************************
 Gaussian 16:  ES64L-G16RevC.01  3-Jul-2019
                 2-Nov-2023 
 ******************************************
 %chk=mobley_1019269.chk
 %mem=1GB
 %NProcShared=1
 Will use up to    1 processors via shared memory.
 -------------------------------------------------------
 #HF/6-31G* SCF=tight Pop=MK iop(6/33=2) iop(6/42=6) opt
 -------------------------------------------------------
 1/18=20,19=15,38=1/1,3;
 2/9=110,12=2,17=6,18=5,40=1/2;
 3/5=1,6=6,7=1,11=9,25=1,30=1,71=1/1,2,3;
 4//1;
 5/5=2,32=2,38=5/2;
 6/7=2,8=2,9=2,10=2,15=8,20=1,28=1,33=2,42=6/1,2;
 7//1,2,3,16;
 1/18=20,19=15/3(2);
 2/9=110/2;
 99//99;
 2/9=110/2;
 3/5=1,6=6,7=1,11=9,25=1,30=1,71=1/1,2,3;
 4/5=5,16=3,69=1/1;
 5/5=2,32=2,38=5/2;
 7//1,2,3,16;
 1/18=20,19=15/3(-5);
 2/9=110/2;
 6/7=2,8=2,9=2,10=2,15=8,19=2,20=1,28=1,33=2,42=6/1,2;
 99/9=1/99;
 --------------
 mobley_1019269
 --------------
 Symbolic Z-matrix:
 Charge =  0 Multiplicity = 1
 C                     0.39     -1.021    -0.085 
 C                    -0.58     -2.024     0.52 
 C                    -1.931    -1.992    -0.189 
 C                    -2.905    -2.995     0.414 
 O                    -4.138    -2.916    -0.288 
 H                     1.356    -1.05      0.429 
 H                     0.559    -1.23     -1.146 
 H                    -0.01     -0.006     0.003 
 H                    -0.147    -3.029     0.452 
 H                    -0.712    -1.799     1.585 
 H                    -2.365    -0.987    -0.134 
 H                    -1.804    -2.207    -1.257 
 H                    -2.519    -4.016     0.326 
 H                    -3.09     -2.774     1.47 
 H                    -4.734    -3.565     0.119 
 

 GradGradGradGradGradGradGradGradGradGradGradGradGradGradGradGradGradGrad
 Berny optimization.
 Initialization pass.
                           ----------------------------
                           !    Initial Parameters    !
                           ! (Angstroms and Degrees)  !
 --------------------------                            --------------------------
 ! Name  Definition              Value          Derivative Info.                !
 --------------------------------------------------------------------------------
 ! R1    R(1,2)                  1.5208         estimate D2E/DX2                !
 ! R2    R(1,6)                  1.0946         estimate D2E/DX2                !
 ! R3    R(1,7)                  1.0945         estimate D2E/DX2                !
 ! R4    R(1,8)                  1.0945         estimate D2E/DX2                !
 ! R5    R(2,3)                  1.5261         estimate D2E/DX2                !
 ! R6    R(2,9)                  1.0964         estimate D2E/DX2                !
 ! R7    R(2,10)                 1.0965         estimate D2E/DX2                !
 ! R8    R(3,4)                  1.5226         estimate D2E/DX2                !
 ! R9    R(3,11)                 1.0961         estimate D2E/DX2                !
 ! R10   R(3,12)                 1.0968         estimate D2E/DX2                !
 ! R11   R(4,5)                  1.421          estimate D2E/DX2                !
 ! R12   R(4,13)                 1.0951         estimate D2E/DX2                !
 ! R13   R(4,14)                 1.0946         estimate D2E/DX2                !
 ! R14   R(5,15)                 0.9706         estimate D2E/DX2                !
 ! A1    A(2,1,6)              111.0138         estimate D2E/DX2                !
 ! A2    A(2,1,7)              110.9881         estimate D2E/DX2                !
 ! A3    A(2,1,8)              110.2744         estimate D2E/DX2                !
 ! A4    A(6,1,7)              108.2925         estimate D2E/DX2                !
 ! A5    A(6,1,8)              108.0189         estimate D2E/DX2                !
 ! A6    A(7,1,8)              108.1465         estimate D2E/DX2                !
 ! A7    A(1,2,3)              111.4685         estimate D2E/DX2                !
 ! A8    A(1,2,9)              109.145          estimate D2E/DX2                !
 ! A9    A(1,2,10)             109.1375         estimate D2E/DX2                !
 ! A10   A(3,2,9)              109.8782         estimate D2E/DX2                !
 ! A11   A(3,2,10)             109.8997         estimate D2E/DX2                !
 ! A12   A(9,2,10)             107.2099         estimate D2E/DX2                !
 ! A13   A(2,3,4)              111.6233         estimate D2E/DX2                !
 ! A14   A(2,3,11)             110.2699         estimate D2E/DX2                !
 ! A15   A(2,3,12)             110.2289         estimate D2E/DX2                !
 ! A16   A(4,3,11)             109.3196         estimate D2E/DX2                !
 ! A17   A(4,3,12)             109.3037         estimate D2E/DX2                !
 ! A18   A(11,3,12)            105.9288         estimate D2E/DX2                !
 ! A19   A(3,4,5)              108.8315         estimate D2E/DX2                !
 ! A20   A(3,4,13)             110.9084         estimate D2E/DX2                !
 ! A21   A(3,4,14)             110.9269         estimate D2E/DX2                !
 ! A22   A(5,4,13)             108.5409         estimate D2E/DX2                !
 ! A23   A(5,4,14)             108.5848         estimate D2E/DX2                !
 ! A24   A(13,4,14)            108.986          estimate D2E/DX2                !
 ! A25   A(4,5,15)             106.7668         estimate D2E/DX2                !
 ! D1    D(6,1,2,3)            179.9855         estimate D2E/DX2                !
 ! D2    D(6,1,2,9)            -58.4611         estimate D2E/DX2                !
 ! D3    D(6,1,2,10)            58.4102         estimate D2E/DX2                !
 ! D4    D(7,1,2,3)            -59.5178         estimate D2E/DX2                !
 ! D5    D(7,1,2,9)             62.0356         estimate D2E/DX2                !
 ! D6    D(7,1,2,10)           178.9069         estimate D2E/DX2                !
 ! D7    D(8,1,2,3)             60.3053         estimate D2E/DX2                !
 ! D8    D(8,1,2,9)           -178.1413         estimate D2E/DX2                !
 ! D9    D(8,1,2,10)           -61.27           estimate D2E/DX2                !
 ! D10   D(1,2,3,4)            179.9999         estimate D2E/DX2                !
 ! D11   D(1,2,3,11)           -58.2798         estimate D2E/DX2                !
 ! D12   D(1,2,3,12)            58.3283         estimate D2E/DX2                !
 ! D13   D(9,2,3,4)             58.8731         estimate D2E/DX2                !
 ! D14   D(9,2,3,11)          -179.4066         estimate D2E/DX2                !
 ! D15   D(9,2,3,12)           -62.7985         estimate D2E/DX2                !
 ! D16   D(10,2,3,4)           -58.8682         estimate D2E/DX2                !
 ! D17   D(10,2,3,11)           62.8521         estimate D2E/DX2                !
 ! D18   D(10,2,3,12)          179.4602         estimate D2E/DX2                !
 ! D19   D(2,3,4,5)           -179.9766         estimate D2E/DX2                !
 ! D20   D(2,3,4,13)           -60.6403         estimate D2E/DX2                !
 ! D21   D(2,3,4,14)            60.6219         estimate D2E/DX2                !
 ! D22   D(11,3,4,5)            57.7557         estimate D2E/DX2                !
 ! D23   D(11,3,4,13)          177.092          estimate D2E/DX2                !
 ! D24   D(11,3,4,14)          -61.6459         estimate D2E/DX2                !
 ! D25   D(12,3,4,5)           -57.7716         estimate D2E/DX2                !
 ! D26   D(12,3,4,13)           61.5647         estimate D2E/DX2                !
 ! D27   D(12,3,4,14)         -177.1731         estimate D2E/DX2                !
 ! D28   D(3,4,5,15)           179.9887         estimate D2E/DX2                !
 ! D29   D(13,4,5,15)           59.1862         estimate D2E/DX2                !
 ! D30   D(14,4,5,15)          -59.16           estimate D2E/DX2                !
 --------------------------------------------------------------------------------
 Trust Radius=3.00D-01 FncErr=1.00D-07 GrdErr=1.00D-07 EigMax=2.50D+02 EigMin=1.00D-04
 Number of steps in this run=     79 maximum allowed number of steps=    100.
 GradGradGradGradGradGradGradGradGradGradGradGradGradGradGradGradGradGrad

                          Input orientation:                          
 ---------------------------------------------------------------------
 Center     Atomic      Atomic             Coordinates (Angstroms)
 Number     Number       Type             X           Y           Z
 ---------------------------------------------------------------------
      1          6           0        0.390000   -1.021000   -0.085000
      2          6           0       -0.580000   -2.024000    0.520000
      3          6           0       -1.931000   -1.992000   -0.189000
      4          6           0       -2.905000   -2.995000    0.414000
      5          8           0       -4.138000   -2.916000   -0.288000
      6          1           0        1.356000   -1.050000    0.429000
      7          1           0        0.559000   -1.230000   -1.146000
      8          1           0       -0.010000   -0.006000    0.003000
      9          1           0       -0.147000   -3.029000    0.452000
     10          1           0       -0.712000   -1.799000    1.585000
     11          1           0       -2.365000   -0.987000   -0.134000
     12          1           0       -1.804000   -2.207000   -1.257000
     13          1           0       -2.519000   -4.016000    0.326000
     14          1           0       -3.090000   -2.774000    1.470000
     15          1           0       -4.734000   -3.565000    0.119000
 ---------------------------------------------------------------------
                    Distance matrix (angstroms):
                    1          2          3          4          5
     1  C    0.000000
     2  C    1.520833   0.000000
     3  C    2.518074   1.526075   0.000000
     4  C    3.873332   2.521845   1.522594   0.000000
     5  O    4.912740   3.756047   2.394666   1.421033   0.000000
     6  H    1.094620   2.169113   3.474717   4.683948   5.846373
     7  H    1.094515   2.168712   2.774273   4.189048   5.063652
     8  H    1.094518   2.159748   2.769711   4.181395   5.058969
     9  H    2.146812   1.096421   2.160765   2.758471   4.060597
    10  H    2.146762   1.096483   2.161084   2.758787   4.061194
    11  H    2.755645   2.165481   1.096087   2.150341   2.624554
    12  H    2.755688   2.165501   1.096804   2.150671   2.624728
    13  H    4.195382   2.786650   2.169688   1.095071   2.051379
    14  H    4.195406   2.786593   2.169582   1.094624   2.051593
    15  H    5.724415   4.448730   3.228932   1.938341   0.970601
                    6          7          8          9         10
     6  H    0.000000
     7  H    1.774326   0.000000
     8  H    1.771262   1.772608   0.000000
     9  H    2.485152   2.507676   3.059232   0.000000
    10  H    2.484746   3.065544   2.492063   1.765167   0.000000
    11  H    3.763878   3.103702   2.554830   3.071267   2.519269
    12  H    3.763887   2.559418   3.106515   2.518336   3.071790
    13  H    4.880921   4.404846   4.741256   2.572242   3.124967
    14  H    4.880858   4.747904   4.393212   3.124516   2.572690
    15  H    6.596167   5.921849   5.915751   4.630200   4.630809
                   11         12         13         14         15
    11  H    0.000000
    12  H    1.750500   0.000000
    13  H    3.067598   2.507906   0.000000
    14  H    2.508348   3.067868   1.782510   0.000000
    15  H    3.510307   3.510333   2.269906   2.270158   0.000000
 Stoichiometry    C4H10O
 Framework group  C1[X(C4H10O)]
 Deg. of freedom    39
 Full point group                 C1      NOp   1
 Largest Abelian subgroup         C1      NOp   1
 Largest concise Abelian subgroup C1      NOp   1
                         Standard orientation:                         
 ---------------------------------------------------------------------
 Center     Atomic      Atomic             Coordinates (Angstroms)
 Number     Number       Type             X           Y           Z
 ---------------------------------------------------------------------
      1          6           0       -2.497442   -0.288572   -0.000621
      2          6           0       -1.219484    0.535902   -0.000762
      3          6           0        0.019764   -0.354698    0.000116
      4          6           0        1.301427    0.467272   -0.000025
      5          8           0        2.413613   -0.417248    0.000264
      6          1           0       -3.381230    0.357270   -0.000995
      7          1           0       -2.545594   -0.937222   -0.880904
      8          1           0       -2.540663   -0.921029    0.891623
      9          1           0       -1.210920    1.185766   -0.883792
     10          1           0       -1.211718    1.187093    0.881375
     11          1           0        0.012393   -1.014776    0.875130
     12          1           0        0.012625   -1.015343   -0.875370
     13          1           0        1.359875    1.099896   -0.891962
     14          1           0        1.359517    1.101077    0.890548
     15          1           0        3.211220    0.135825   -0.000017
 ---------------------------------------------------------------------
 Rotational constants (GHZ):          18.8470662           1.9906177           1.8850531
 Standard basis: 6-31G(d) (6D, 7F)
 There are    95 symmetry adapted cartesian basis functions of A   symmetry.
 There are    95 symmetry adapted basis functions of A   symmetry.
    95 basis functions,   180 primitive gaussians,    95 cartesian basis functions
    21 alpha electrons       21 beta electrons
       nuclear repulsion energy       185.2936770247 Hartrees.
 NAtoms=   15 NActive=   15 NUniq=   15 SFac= 1.00D+00 NAtFMM=   60 NAOKFM=F Big=F
 Integral buffers will be    131072 words long.
 Raffenetti 1 integral format.
 Two-electron integral symmetry is turned on.
 One-electron integrals computed using PRISM.
 NBasis=    95 RedAO= T EigKep=  3.57D-03  NBF=    95
 NBsUse=    95 1.00D-06 EigRej= -1.00D+00 NBFU=    95
 ExpMin= 1.61D-01 ExpMax= 5.48D+03 ExpMxC= 8.25D+02 IAcc=3 IRadAn=         5 AccDes= 0.00D+00
 Harris functional with IExCor=  205 and IRadAn=       5 diagonalized for initial guess.
 HarFok:  IExCor=  205 AccDes= 0.00D+00 IRadAn=         5 IDoV= 1 UseB2=F ITyADJ=14
 ICtDFT=  3500011 ScaDFX=  1.000000  1.000000  1.000000  1.000000
 FoFCou: FMM=F IPFlag=           0 FMFlag=      100000 FMFlg1=           0
         NFxFlg=           0 DoJE=T BraDBF=F KetDBF=T FulRan=T
         wScrn=  0.000000 ICntrl=       500 IOpCl=  0 I1Cent=   200000004 NGrid=           0
         NMat0=    1 NMatS0=      1 NMatT0=    0 NMatD0=    1 NMtDS0=    0 NMtDT0=    0
 Petite list used in FoFCou.
 Keep R1 ints in memory in canonical form, NReq=11282017.
 Requested convergence on RMS density matrix=1.00D-08 within 128 cycles.
 Requested convergence on MAX density matrix=1.00D-06.
 Requested convergence on             energy=1.00D-06.
 No special actions if energy rises.
 SCF Done:  E(RHF) =  -232.143065556     A.U. after   11 cycles
            NFock= 11  Conv=0.79D-08     -V/T= 2.0016
 SCF density gives NOpUse=  1 NOpAll=  1.

 **********************************************************************

            Population analysis using the SCF Density.

 **********************************************************************

 Orbital symmetries:
 BldTbl:  Degeneracy threshold= 1.00D-02
       Occupied  (A) (A) (A) (A) (A) (A) (A) (A) (A) (A) (A) (A)
                 (A) (A) (A) (A) (A) (A) (A) (A) (A)
       Virtual   (A) (A) (A) (A) (A) (A) (A) (A) (A) (A) (A) (A)
                 (A) (A) (A) (A) (A) (A) (A) (A) (A) (A) (A) (A)
                 (A) (A) (A) (A) (A) (A) (A) (A) (A) (A) (A) (A)
                 (A) (A) (A) (A) (A) (A) (A) (A) (A) (A) (A) (A)
                 (A) (A) (A) (A) (A) (A) (A) (A) (A) (A) (A) (A)
                 (A) (A) (A) (A) (A) (A) (A) (A) (A) (A) (A) (A)
                 (A) (A)
 The electronic state is 1-A.
 Alpha  occ. eigenvalues --  -20.55298 -11.27035 -11.22089 -11.21563 -11.21275
 Alpha  occ. eigenvalues --   -1.34803  -1.07178  -0.97158  -0.85027  -0.79410
 Alpha  occ. eigenvalues --   -0.67912  -0.65905  -0.60361  -0.59073  -0.56109
 Alpha  occ. eigenvalues --   -0.51981  -0.50766  -0.47581  -0.46970  -0.46159
 Alpha  occ. eigenvalues --   -0.43421
 Alpha virt. eigenvalues --    0.22449   0.23230   0.27501   0.27568   0.29387
 Alpha virt. eigenvalues --    0.32827   0.33866   0.34089   0.34691   0.36413
 Alpha virt. eigenvalues --    0.37438   0.42551   0.44608   0.47717   0.71096
 Alpha virt. eigenvalues --    0.74204   0.75580   0.75785   0.77975   0.84515
 Alpha virt. eigenvalues --    0.90456   0.92645   0.96448   0.98926   1.02165
 Alpha virt. eigenvalues --    1.08170   1.11331   1.12451   1.15614   1.16286
 Alpha virt. eigenvalues --    1.17430   1.19326   1.19677   1.21348   1.22723
 Alpha virt. eigenvalues --    1.24603   1.25531   1.27867   1.37874   1.50359
 Alpha virt. eigenvalues --    1.59363   1.67656   1.67730   1.72690   1.79024
 Alpha virt. eigenvalues --    1.84790   2.02186   2.03924   2.07264   2.14266
 Alpha virt. eigenvalues --    2.22484   2.23338   2.27027   2.32937   2.35060
 Alpha virt. eigenvalues --    2.38653   2.42966   2.53545   2.60494   2.62923
 Alpha virt. eigenvalues --    2.66404   2.74898   2.78412   2.79702   2.82615
 Alpha virt. eigenvalues --    2.91247   2.99420   3.14763   3.25643   4.19271
 Alpha virt. eigenvalues --    4.57854   4.68986   4.79946   4.95853
          Condensed to atoms (all electrons):
               1          2          3          4          5          6
     1  C    5.096067   0.339845  -0.057780   0.004151  -0.000038   0.394770
     2  C    0.339845   5.092834   0.328925  -0.052315   0.002199  -0.037821
     3  C   -0.057780   0.328925   5.117369   0.363727  -0.051134   0.004583
     4  C    0.004151  -0.052315   0.363727   4.758795   0.210797  -0.000095
     5  O   -0.000038   0.002199  -0.051134   0.210797   8.404961   0.000000
     6  H    0.394770  -0.037821   0.004583  -0.000095   0.000000   0.537879
     7  H    0.392590  -0.039177  -0.003853  -0.000067  -0.000001  -0.026886
     8  H    0.392607  -0.040197  -0.003966  -0.000070  -0.000001  -0.027228
     9  H   -0.040472   0.398603  -0.042136  -0.003302  -0.000026  -0.002739
    10  H   -0.040295   0.398740  -0.042092  -0.003288  -0.000027  -0.002652
    11  H   -0.003266  -0.037512   0.393554  -0.036751   0.002216  -0.000049
    12  H   -0.003284  -0.037524   0.393605  -0.036759   0.002212  -0.000048
    13  H   -0.000127  -0.000252  -0.044740   0.399096  -0.041102   0.000002
    14  H   -0.000127  -0.000249  -0.044737   0.398987  -0.041028   0.000002
    15  H    0.000003  -0.000214   0.006125  -0.023757   0.257766  -0.000000
               7          8          9         10         11         12
     1  C    0.392590   0.392607  -0.040472  -0.040295  -0.003266  -0.003284
     2  C   -0.039177  -0.040197   0.398603   0.398740  -0.037512  -0.037524
     3  C   -0.003853  -0.003966  -0.042136  -0.042092   0.393554   0.393605
     4  C   -0.000067  -0.000070  -0.003302  -0.003288  -0.036751  -0.036759
     5  O   -0.000001  -0.000001  -0.000026  -0.000027   0.002216   0.002212
     6  H   -0.026886  -0.027228  -0.002739  -0.002652  -0.000049  -0.000048
     7  H    0.543271  -0.028435  -0.002935   0.004287   0.000169   0.002479
     8  H   -0.028435   0.545461   0.004391  -0.003109   0.002523   0.000166
     9  H   -0.002935   0.004391   0.561812  -0.031424   0.004202  -0.002775
    10  H    0.004287  -0.003109  -0.031424   0.561457  -0.002765   0.004197
    11  H    0.000169   0.002523   0.004202  -0.002765   0.537823  -0.030541
    12  H    0.002479   0.000166  -0.002775   0.004197  -0.030541   0.538026
    13  H    0.000016  -0.000003   0.002319   0.000124   0.004639  -0.004615
    14  H   -0.000003   0.000017   0.000125   0.002316  -0.004601   0.004637
    15  H    0.000000   0.000000   0.000000   0.000000  -0.000154  -0.000153
              13         14         15
     1  C   -0.000127  -0.000127   0.000003
     2  C   -0.000252  -0.000249  -0.000214
     3  C   -0.044740  -0.044737   0.006125
     4  C    0.399096   0.398987  -0.023757
     5  O   -0.041102  -0.041028   0.257766
     6  H    0.000002   0.000002  -0.000000
     7  H    0.000016  -0.000003   0.000000
     8  H   -0.000003   0.000017   0.000000
     9  H    0.002319   0.000125   0.000000
    10  H    0.000124   0.002316   0.000000
    11  H    0.004639  -0.004601  -0.000154
    12  H   -0.004615   0.004637  -0.000153
    13  H    0.597078  -0.045864  -0.003742
    14  H   -0.045864   0.597005  -0.003743
    15  H   -0.003742  -0.003743   0.334827
 Mulliken charges:
               1
     1  C   -0.474644
     2  C   -0.315886
     3  C   -0.317452
     4  C    0.020851
     5  O   -0.746796
     6  H    0.160281
     7  H    0.158545
     8  H    0.157846
     9  H    0.154360
    10  H    0.154530
    11  H    0.170514
    12  H    0.170378
    13  H    0.137171
    14  H    0.137262
    15  H    0.433041
 Sum of Mulliken charges =  -0.00000
 Mulliken charges with hydrogens summed into heavy atoms:
               1
     1  C    0.002028
     2  C   -0.006996
     3  C    0.023440
     4  C    0.295284
     5  O   -0.313755
 DipInt: DoE/N= T F RetVal/Mat= T F Init=T NMatP=  1 IDeriv=0 Min/MaxMlt=  0  4
 Entering OneElI...
 OneElI was handed   134192546 working-precision words.
 Multipole integrals L=0 to 4 MinM= 0 MaxM= 0.
 Requested accuracy = 0.1000D-12
 ShPair: Thresh= 1.00D-13 NBox=     0 BxSize= 0.00D+00 RnKept= 1.25D+01
         NSMCal=                  820 NSMKep=                 799
 PrmmSu-InSpLW:  IPartL=    0 NPrtUS=    1 NPrtUL=    1 DoSpLW=F IThBeg=    0 IThEnd=    0 NThAct=    1.
 PrSmSu:  IncTry=   512 NBBP=            799 NTPThr=   100 NPartT=    1 Incr=           7 LDynOK=F GPUOK=F.
 PrsmSu:  NPrtUS=   1 ThrOK=F IAlg=2 LenDen=           0 ISkipM=0 DoSpLW=F IThBeg=    0 IThEnd=    0.
 Prism:   IPart=     0 DynPar=F LinDyn=F Incr=           7.
 PRISM was handed   134122091 working-precision words and   799 shell-pairs
 IPart=  0 NShTot=         799 NBatch=          38 AvBLen=        21.0
 PrsmSu-ThDecC:  IPartSL=    0    0 NPrtUSL=    1    1 IThBeg=    0 IThEnd=    0 CPU=   -1 GPU=   -1 NThAct=    1.
 PrSmSu:  NxtVal=              8.
 Electronic moments (au):
        -42.00000000         -0.00706586          0.70299033          0.00038986
       -538.88810466        -78.53850944        -47.00585468          3.48347316
          0.00110302          0.00984361        153.77036291        -20.82426488
         -0.08677485         24.32524276        151.69258098         -0.11947730
         29.43193962         -4.43253582          0.11720372          0.06314324
     -12661.91167090       -431.23979524       -220.98500349         27.57699899
         -0.30630006        -30.73361545         -0.28466013          0.70400220
          0.26610394       -843.01864082       -536.58390886       -156.82344142
         -0.27181688         -0.52170137        -46.08999315
 Electronic spatial extent (au):  <R**2>=            664.4325
 DipInt: DoE/N= F T RetVal/Mat= T F Init=T NMatP=  1 IDeriv=0 Min/MaxMlt=  0  4
 Nuclear    moments (au):
         42.00000000          0.00000000         -0.00000000          0.00000000
        515.75850241         53.03500187         22.31806571         -0.00000000
         -0.00000000          0.00000000       -105.26787117         19.57005533
          0.10586551        -21.07030656       -132.92970277          0.08268658
        -24.98925246          3.92734412         -0.13508083         -0.10500755
      11059.42043088        149.04033672         62.27516188         37.64850312
          0.48480065         26.90145411          0.41241532         -0.75886294
         -0.25398311        477.42838193        196.17665606         89.92485005
          0.51551003          0.65906059         48.84753114
 Total      moments (au):
         -0.00000000         -0.00706586          0.70299033          0.00038986
        -23.12960225        -25.50350756        -24.68778898          3.48347316
          0.00110302          0.00984361         48.50249174         -1.25420955
          0.01909066          3.25493620         18.76287822         -0.03679072
          4.44268716         -0.50519170         -0.01787711         -0.04186431
      -1602.49124002       -282.19945852       -158.70984161         65.22550211
          0.17850059         -3.83216134          0.12775518         -0.05486075
          0.01212084       -365.59025889       -340.40725280        -66.89859137
          0.24369314          0.13735922          2.75753799
 Traceless Quadrup. (au):
          1.31069734         -1.06320797         -0.24748938          3.48347316
          0.00110302          0.00984361
 Charge=             -0.0000 electrons
 Dipole moment (field-independent basis, Debye):
    X=             -0.0180    Y=              1.7868    Z=              0.0010  Tot=              1.7869
 Quadrupole moment (field-independent basis, Debye-Ang):
   XX=            -31.1101   YY=            -34.3031   ZZ=            -33.2059
   XY=              4.6854   XZ=              0.0015   YZ=              0.0132
 Traceless Quadrupole moment (field-independent basis, Debye-Ang):
   XX=              1.7629   YY=             -1.4301   ZZ=             -0.3329
   XY=              4.6854   XZ=              0.0015   YZ=              0.0132
 Octapole moment (field-independent basis, Debye-Ang**2):
  XXX=             34.5222  YYY=             -0.8927  ZZZ=              0.0136  XYY=              2.3167
  XXY=             13.3547  XXZ=             -0.0262  XZZ=              3.1621  YZZ=             -0.3596
  YYZ=             -0.0127  XYZ=             -0.0298
 Hexadecapole moment (field-independent basis, Debye-Ang**3):
 XXXX=           -603.5750 YYYY=           -106.2898 ZZZZ=            -59.7777 XXXY=             24.5671
 XXXZ=              0.0672 YYYX=             -1.4434 YYYZ=              0.0481 ZZZX=             -0.0207
 ZZZY=              0.0046 XXYY=           -137.6988 XXZZ=           -128.2137 YYZZ=            -25.1972
 XXYZ=              0.0918 YYXZ=              0.0517 ZZXY=              1.0386
 N-N= 1.852936770247D+02 E-N=-9.137077963982D+02  KE= 2.317757981103D+02
 Entering OneElI...
 OneElI was handed   134196621 working-precision words.
 Calculate electrostatic properties
    NBasis =    95  MinDer = 0  MaxDer = 0
    NGrid  =    15  NMatD  =   1
 Requested accuracy = 0.1000D-12
 ShPair: Thresh= 1.00D-13 NBox=     0 BxSize= 0.00D+00 RnKept= 1.25D+01
         NSMCal=                  820 NSMKep=                 776
 PrmmSu-InSpLW:  IPartL=    0 NPrtUS=    1 NPrtUL=    1 DoSpLW=F IThBeg=    0 IThEnd=    0 NThAct=    1.
 PrSmSu:  IncTry=   512 NBBP=          11640 NTPThr=   100 NPartT=    1 Incr=         116 LDynOK=F GPUOK=F.
 PrsmSu:  NPrtUS=   1 ThrOK=F IAlg=2 LenDen=           0 ISkipM=0 DoSpLW=F IThBeg=    0 IThEnd=    0.
 Prism:   IPart=     0 DynPar=F LinDyn=F Incr=         116.
 PRISM was handed   134129021 working-precision words and   776 shell-pairs
 IPart=  0 NShTot=       11640 NBatch=         776 AvBLen=        15.0
 PrsmSu-ThDecC:  IPartSL=    0    0 NPrtUSL=    1    1 IThBeg=    0 IThEnd=    0 CPU=   -1 GPU=   -1 NThAct=    1.
 PrSmSu:  NxtVal=            117.
 --------------------------------------------------------
       Center         ----      EFG at Nuclei      ----
                      3XX-RR        3YY-RR        3ZZ-RR
 --------------------------------------------------------
     1   Atom       -0.003953     -0.004825      0.008778
     2   Atom       -0.004400     -0.008607      0.013006
     3   Atom       -0.006292     -0.023677      0.029969
     4   Atom       -0.133126     -0.036142      0.169269
     5   Atom       -1.778372     -0.202082      1.980455
     6   Atom       -0.144645     -0.008549      0.153194
     7   Atom        0.145388     -0.005547     -0.139842
     8   Atom        0.145573      0.001818     -0.147391
     9   Atom        0.141544     -0.005414     -0.136130
    10   Atom        0.141437     -0.005953     -0.135485
    11   Atom        0.142308     -0.007886     -0.134422
    12   Atom        0.141717     -0.007936     -0.133781
    13   Atom        0.134617      0.002137     -0.136755
    14   Atom        0.134990      0.001507     -0.136497
    15   Atom       -0.243290     -0.010964      0.254254
 --------------------------------------------------------
                        XY            XZ            YZ
 --------------------------------------------------------
     1   Atom       -0.010906     -0.000005     -0.000121
     2   Atom       -0.000440     -0.000250     -0.000247
     3   Atom       -0.016540      0.000002     -0.000374
     4   Atom        0.258927     -0.000159      0.000363
     5   Atom        0.066271      0.000505      0.000514
     6   Atom        0.211751     -0.000308      0.000115
     7   Atom       -0.014184     -0.013858     -0.214437
     8   Atom       -0.013063      0.012696      0.211931
     9   Atom       -0.002601      0.003730      0.211362
    10   Atom       -0.002386     -0.003335     -0.211425
    11   Atom       -0.004242      0.003321      0.211065
    12   Atom       -0.004179     -0.003219     -0.210213
    13   Atom       -0.007924      0.018573      0.207958
    14   Atom       -0.007916     -0.018532     -0.208718
    15   Atom       -0.298525      0.000162      0.000128
 --------------------------------------------------------


 ---------------------------------------------------------------------------------
              Nuclear Quadrupole Coupling Constant in Principal Axis System
 ---------------------------------------------------------------------------------

       Atom             a.u.   MegaHertz   Gauss  10(-4) cm-1        Axes


 ---------------------------------------------------------------------------------

 No NMR shielding tensors so no spin-rotation constants.
 Leave Link  601 at Thu Nov  2 13:03:48 2023, MaxMem=   134217728 cpu:               0.1 elap:               0.1
 FitSet:  NAtFit=    15 NAtPot=    15 NAtFrz=     0 MDM=    19 TotChg=   0.00000
 Merz-Kollman atomic radii used.
 Atom Element Radius
    1     6    1.50
    2     6    1.50
    3     6    1.50
    4     6    1.50
    5     8    1.40
    6     1    1.20
    7     1    1.20
    8     1    1.20
    9     1    1.20
   10     1    1.20
   11     1    1.20
   12     1    1.20
   13     1    1.20
   14     1    1.20
   15     1    1.20
 Generate VDW surfaces: Layer= 4 Dens= 6 Start= 1.400 Inc= 0.200

 **********************************************************************

            Electrostatic Properties Using The SCF Density.

 **********************************************************************

       Atomic Center    1 is at  -2.497442 -0.288572 -0.000621
       Atomic Center    2 is at  -1.219484  0.535902 -0.000762
       Atomic Center    3 is at   0.019764 -0.354698  0.000116
       Atomic Center    4 is at   1.301427  0.467272 -0.000025
       Atomic Center    5 is at   2.413613 -0.417248  0.000264
       Atomic Center    6 is at  -3.381230  0.357270 -0.000995
       Atomic Center    7 is at  -2.545594 -0.937222 -0.880904
       Atomic Center    8 is at  -2.540663 -0.921029  0.891623
       Atomic Center    9 is at  -1.210920  1.185766 -0.883792
       Atomic Center   10 is at  -1.211718  1.187093  0.881375
       Atomic Center   11 is at   0.012393 -1.014776  0.875130
       Atomic Center   12 is at   0.012625 -1.015343 -0.875370
       Atomic Center   13 is at   1.359875  1.099896 -0.891962
       Atomic Center   14 is at   1.359517  1.101077  0.890548
       Atomic Center   15 is at   3.211220  0.135825 -0.000017
      ESP Fit Center   16 is at  -2.497442  0.515063  1.939526
      ESP Fit Center   17 is at  -2.899259  0.407396  1.939526
      ESP Fit Center   18 is at  -2.816724  0.833587  1.745465
      ESP Fit Center   19 is at  -3.200534  0.642473  1.745465
      ESP Fit Center   20 is at  -3.489388  0.325615  1.745465
      ESP Fit Center   21 is at  -3.982366 -0.288572  1.484303
      ESP Fit Center   22 is at  -4.192790 -0.706438  1.166077
      ESP Fit Center   23 is at  -4.336028 -0.908064  0.803014
      ESP Fit Center   24 is at  -4.462634 -0.905155  0.409069
      ESP Fit Center   25 is at  -4.298289 -1.288124  0.409069
      ESP Fit Center   26 is at  -4.060217 -1.630171  0.409069
      ESP Fit Center   27 is at  -4.437589 -1.092207 -0.000621
      ESP Fit Center   28 is at  -4.243528 -1.455270 -0.000621
      ESP Fit Center   29 is at  -3.982366 -1.773496 -0.000621
      ESP Fit Center   30 is at  -3.664139 -2.034658 -0.000621
      ESP Fit Center   31 is at  -3.301077 -2.228719 -0.000621
      ESP Fit Center   32 is at  -2.907131 -2.348221 -0.000621
      ESP Fit Center   33 is at  -2.497442 -2.388572 -0.000621
      ESP Fit Center   34 is at  -2.087752 -2.348221 -0.000621
      ESP Fit Center   35 is at  -1.693806 -2.228719 -0.000621
      ESP Fit Center   36 is at  -1.330744 -2.034658 -0.000621
      ESP Fit Center   37 is at  -4.462634 -0.905155 -0.410311
      ESP Fit Center   38 is at  -4.298289 -1.288124 -0.410311
      ESP Fit Center   39 is at  -4.060217 -1.630171 -0.410311
      ESP Fit Center   40 is at  -4.336028 -0.908064 -0.804256
      ESP Fit Center   41 is at  -4.192790 -0.706438 -1.167318
      ESP Fit Center   42 is at  -3.982366 -0.288572 -1.485545
      ESP Fit Center   43 is at  -2.816724  0.833587 -1.746707
      ESP Fit Center   44 is at  -3.200534  0.642473 -1.746707
      ESP Fit Center   45 is at  -3.489388  0.325615 -1.746707
      ESP Fit Center   46 is at  -2.497442  0.515063 -1.940768
      ESP Fit Center   47 is at  -2.899259  0.407396 -1.940768
      ESP Fit Center   48 is at  -1.219484 -0.267733  1.939385
      ESP Fit Center   49 is at  -2.782260  1.877501  0.408928
      ESP Fit Center   50 is at  -0.052787  2.281989 -0.000762
      ESP Fit Center   51 is at  -0.415849  2.476049 -0.000762
      ESP Fit Center   52 is at  -0.809794  2.595551 -0.000762
      ESP Fit Center   53 is at  -1.219484  2.635902 -0.000762
      ESP Fit Center   54 is at  -1.629174  2.595551 -0.000762
      ESP Fit Center   55 is at  -2.023119  2.476049 -0.000762
      ESP Fit Center   56 is at  -2.386182  2.281989 -0.000762
      ESP Fit Center   57 is at  -2.704408  2.020827 -0.000762
      ESP Fit Center   58 is at  -2.782260  1.877501 -0.410451
      ESP Fit Center   59 is at  -1.219484 -0.267733 -1.940909
      ESP Fit Center   60 is at   0.019764  0.448937  1.940263
      ESP Fit Center   61 is at  -1.146933 -2.100784  0.000116
      ESP Fit Center   62 is at  -0.783871 -2.294845  0.000116
      ESP Fit Center   63 is at  -0.389926 -2.414347  0.000116
      ESP Fit Center   64 is at   0.019764 -2.454698  0.000116
      ESP Fit Center   65 is at   0.429454 -2.414347  0.000116
      ESP Fit Center   66 is at   0.823399 -2.294845  0.000116
      ESP Fit Center   67 is at   1.186462 -2.100784  0.000116
      ESP Fit Center   68 is at   0.019764  0.448937 -1.940031
      ESP Fit Center   69 is at   1.301427 -0.336363  1.940122
      ESP Fit Center   70 is at   1.703244 -0.228697  1.940122
      ESP Fit Center   71 is at   2.786351  1.952196 -0.000025
      ESP Fit Center   72 is at   2.468124  2.213358 -0.000025
      ESP Fit Center   73 is at   2.105062  2.407419 -0.000025
      ESP Fit Center   74 is at   1.711116  2.526921 -0.000025
      ESP Fit Center   75 is at   1.301427  2.567272 -0.000025
      ESP Fit Center   76 is at   0.891737  2.526921 -0.000025
      ESP Fit Center   77 is at   0.497792  2.407419 -0.000025
      ESP Fit Center   78 is at   0.134729  2.213358 -0.000025
      ESP Fit Center   79 is at   2.720457  1.960091 -0.409715
      ESP Fit Center   80 is at   1.301427 -0.336363 -1.940172
      ESP Fit Center   81 is at   1.703244 -0.228697 -1.940172
      ESP Fit Center   82 is at   2.413613 -0.417248  1.960264
      ESP Fit Center   83 is at   2.821120 -0.417248  1.917434
      ESP Fit Center   84 is at   2.617367 -0.064336  1.917434
      ESP Fit Center   85 is at   2.209860 -0.064336  1.917434
      ESP Fit Center   86 is at   2.006106 -0.417248  1.917434
      ESP Fit Center   87 is at   2.209860 -0.770159  1.917434
      ESP Fit Center   88 is at   2.617367 -0.770159  1.917434
      ESP Fit Center   89 is at   3.210817 -0.417248  1.790813
      ESP Fit Center   90 is at   3.104012 -0.018646  1.790813
      ESP Fit Center   91 is at   2.812215  0.273151  1.790813
      ESP Fit Center   92 is at   1.723214 -0.815850  1.790813
      ESP Fit Center   93 is at   2.015011 -1.107647  1.790813
      ESP Fit Center   94 is at   2.413613 -1.214452  1.790813
      ESP Fit Center   95 is at   2.812215 -1.107647  1.790813
      ESP Fit Center   96 is at   3.104012 -0.815850  1.790813
      ESP Fit Center   97 is at   3.565672 -0.417248  1.585938
      ESP Fit Center   98 is at   2.927130  0.614033  1.585938
      ESP Fit Center   99 is at   1.719342 -1.336611  1.585938
      ESP Fit Center  100 is at   2.098337 -1.525328  1.585938
      ESP Fit Center  101 is at   2.519912 -1.564392  1.585938
      ESP Fit Center  102 is at   2.927130 -1.448529  1.585938
      ESP Fit Center  103 is at   3.264995 -1.193385  1.585938
      ESP Fit Center  104 is at   3.487876 -0.833420  1.585938
      ESP Fit Center  105 is at   1.808535 -1.742185  1.311760
      ESP Fit Center  106 is at   2.206323 -1.858986  1.311760
      ESP Fit Center  107 is at   2.620904 -1.858986  1.311760
      ESP Fit Center  108 is at   3.018692 -1.742185  1.311760
      ESP Fit Center  109 is at   3.367460 -1.518045  1.311760
      ESP Fit Center  110 is at   3.638953 -1.204726  1.311760
      ESP Fit Center  111 is at   3.811176 -0.827609  1.311760
      ESP Fit Center  112 is at   1.690891 -1.953110  0.980264
      ESP Fit Center  113 is at   2.095550 -2.084592  0.980264
      ESP Fit Center  114 is at   2.520194 -2.111308  0.980264
      ESP Fit Center  115 is at   2.938142 -2.031580  0.980264
      ESP Fit Center  116 is at   3.323131 -1.850418  0.980264
      ESP Fit Center  117 is at   3.650972 -1.579205  0.980264
      ESP Fit Center  118 is at   3.901065 -1.234981  0.980264
      ESP Fit Center  119 is at   1.604823 -2.096718  0.605938
      ESP Fit Center  120 is at   1.998818 -2.234582  0.605938
      ESP Fit Center  121 is at   2.413613 -2.281319  0.605938
      ESP Fit Center  122 is at   2.828408 -2.234582  0.605938
      ESP Fit Center  123 is at   3.222403 -2.096718  0.605938
      ESP Fit Center  124 is at   3.575842 -1.874637  0.605938
      ESP Fit Center  125 is at   3.871002 -1.579477  0.605938
      ESP Fit Center  126 is at   4.093083 -1.226038  0.605938
      ESP Fit Center  127 is at   1.319712 -2.030631  0.205140
      ESP Fit Center  128 is at   1.692117 -2.228068  0.205140
      ESP Fit Center  129 is at   2.098258 -2.340832  0.205140
      ESP Fit Center  130 is at   2.519144 -2.363652  0.205140
      ESP Fit Center  131 is at   2.935096 -2.295460  0.205140
      ESP Fit Center  132 is at   3.326664 -2.139445  0.205140
      ESP Fit Center  133 is at   3.675539 -1.902902  0.205140
      ESP Fit Center  134 is at   3.965408 -1.596891  0.205140
      ESP Fit Center  135 is at   4.182716 -1.235722  0.205140
      ESP Fit Center  136 is at   1.319712 -2.030631 -0.204611
      ESP Fit Center  137 is at   1.692117 -2.228068 -0.204611
      ESP Fit Center  138 is at   2.098258 -2.340832 -0.204611
      ESP Fit Center  139 is at   2.519144 -2.363652 -0.204611
      ESP Fit Center  140 is at   2.935096 -2.295460 -0.204611
      ESP Fit Center  141 is at   3.326664 -2.139445 -0.204611
      ESP Fit Center  142 is at   3.675539 -1.902902 -0.204611
      ESP Fit Center  143 is at   3.965408 -1.596891 -0.204611
      ESP Fit Center  144 is at   4.182716 -1.235722 -0.204611
      ESP Fit Center  145 is at   1.604823 -2.096718 -0.605409
      ESP Fit Center  146 is at   1.998818 -2.234582 -0.605409
      ESP Fit Center  147 is at   2.413613 -2.281319 -0.605409
      ESP Fit Center  148 is at   2.828408 -2.234582 -0.605409
      ESP Fit Center  149 is at   3.222403 -2.096718 -0.605409
      ESP Fit Center  150 is at   3.575842 -1.874637 -0.605409
      ESP Fit Center  151 is at   3.871002 -1.579477 -0.605409
      ESP Fit Center  152 is at   4.093083 -1.226038 -0.605409
      ESP Fit Center  153 is at   1.690891 -1.953110 -0.979736
      ESP Fit Center  154 is at   2.095550 -2.084592 -0.979736
      ESP Fit Center  155 is at   2.520194 -2.111308 -0.979736
      ESP Fit Center  156 is at   2.938142 -2.031580 -0.979736
      ESP Fit Center  157 is at   3.323131 -1.850418 -0.979736
      ESP Fit Center  158 is at   3.650972 -1.579205 -0.979736
      ESP Fit Center  159 is at   3.901065 -1.234981 -0.979736
      ESP Fit Center  160 is at   1.808535 -1.742185 -1.311232
      ESP Fit Center  161 is at   2.206323 -1.858986 -1.311232
      ESP Fit Center  162 is at   2.620904 -1.858986 -1.311232
      ESP Fit Center  163 is at   3.018692 -1.742185 -1.311232
      ESP Fit Center  164 is at   3.367460 -1.518045 -1.311232
      ESP Fit Center  165 is at   3.638953 -1.204726 -1.311232
      ESP Fit Center  166 is at   3.811176 -0.827609 -1.311232
      ESP Fit Center  167 is at   3.565672 -0.417248 -1.585409
      ESP Fit Center  168 is at   2.927130  0.614033 -1.585409
      ESP Fit Center  169 is at   1.719342 -1.336611 -1.585409
      ESP Fit Center  170 is at   2.098337 -1.525328 -1.585409
      ESP Fit Center  171 is at   2.519912 -1.564392 -1.585409
      ESP Fit Center  172 is at   2.927130 -1.448529 -1.585409
      ESP Fit Center  173 is at   3.264995 -1.193385 -1.585409
      ESP Fit Center  174 is at   3.487876 -0.833420 -1.585409
      ESP Fit Center  175 is at   3.210817 -0.417248 -1.790285
      ESP Fit Center  176 is at   3.104012 -0.018646 -1.790285
      ESP Fit Center  177 is at   2.812215  0.273151 -1.790285
      ESP Fit Center  178 is at   1.723214 -0.815850 -1.790285
      ESP Fit Center  179 is at   2.015011 -1.107647 -1.790285
      ESP Fit Center  180 is at   2.413613 -1.214452 -1.790285
      ESP Fit Center  181 is at   2.812215 -1.107647 -1.790285
      ESP Fit Center  182 is at   3.104012 -0.815850 -1.790285
      ESP Fit Center  183 is at   2.821120 -0.417248 -1.916905
      ESP Fit Center  184 is at   2.617367 -0.064336 -1.916905
      ESP Fit Center  185 is at   2.209860 -0.064336 -1.916905
      ESP Fit Center  186 is at   2.006106 -0.417248 -1.916905
      ESP Fit Center  187 is at   2.209860 -0.770159 -1.916905
      ESP Fit Center  188 is at   2.617367 -0.770159 -1.916905
      ESP Fit Center  189 is at   2.413613 -0.417248 -1.959736
      ESP Fit Center  190 is at  -3.598638  0.733832  1.621760
      ESP Fit Center  191 is at  -3.816046  0.357270  1.621760
      ESP Fit Center  192 is at  -3.381230  1.197270  1.453928
      ESP Fit Center  193 is at  -3.801230  1.084731  1.453928
      ESP Fit Center  194 is at  -4.108691  0.777270  1.453928
      ESP Fit Center  195 is at  -4.221230  0.357270  1.453928
      ESP Fit Center  196 is at  -4.108691 -0.062730  1.453928
      ESP Fit Center  197 is at  -2.851719  1.420670  1.186944
      ESP Fit Center  198 is at  -3.271620  1.540142  1.186944
      ESP Fit Center  199 is at  -3.706325  1.499860  1.186944
      ESP Fit Center  200 is at  -4.097123  1.305266  1.186944
      ESP Fit Center  201 is at  -4.391236  0.982639  1.186944
      ESP Fit Center  202 is at  -4.548942  0.575553  1.186944
      ESP Fit Center  203 is at  -4.548942  0.138987  1.186944
      ESP Fit Center  204 is at  -4.391236 -0.268100  1.186944
      ESP Fit Center  205 is at  -2.849687  1.711619  0.839005
      ESP Fit Center  206 is at  -3.272503  1.808124  0.839005
      ESP Fit Center  207 is at  -3.704980  1.775715  0.839005
      ESP Fit Center  208 is at  -4.108691  1.617270  0.839005
      ESP Fit Center  209 is at  -4.447763  1.346869  0.839005
      ESP Fit Center  210 is at  -4.692070  0.988537  0.839005
      ESP Fit Center  211 is at  -4.819902  0.574115  0.839005
      ESP Fit Center  212 is at  -4.819902  0.140425  0.839005
      ESP Fit Center  213 is at  -4.692070 -0.273997  0.839005
      ESP Fit Center  214 is at  -4.447763 -0.632329  0.839005
      ESP Fit Center  215 is at  -2.961230  1.924731  0.433821
      ESP Fit Center  216 is at  -3.381230  1.980025  0.433821
      ESP Fit Center  217 is at  -3.801230  1.924731  0.433821
      ESP Fit Center  218 is at  -4.192607  1.762617  0.433821
      ESP Fit Center  219 is at  -4.528691  1.504731  0.433821
      ESP Fit Center  220 is at  -4.786577  1.168648  0.433821
      ESP Fit Center  221 is at  -4.948691  0.777270  0.433821
      ESP Fit Center  222 is at  -5.003985  0.357270  0.433821
      ESP Fit Center  223 is at  -4.948691 -0.062730  0.433821
      ESP Fit Center  224 is at  -4.786577 -0.454108  0.433821
      ESP Fit Center  225 is at  -4.528691 -0.790191  0.433821
      ESP Fit Center  226 is at  -2.862081  1.955045 -0.000995
      ESP Fit Center  227 is at  -3.275741  2.033955 -0.000995
      ESP Fit Center  228 is at  -3.696030  2.007512 -0.000995
      ESP Fit Center  229 is at  -4.096539  1.877379 -0.000995
      ESP Fit Center  230 is at  -4.452102  1.651732 -0.000995
      ESP Fit Center  231 is at  -4.740378  1.344749 -0.000995
      ESP Fit Center  232 is at  -4.943254  0.975719 -0.000995
      ESP Fit Center  233 is at  -5.047982  0.567830 -0.000995
      ESP Fit Center  234 is at  -5.047982  0.146710 -0.000995
      ESP Fit Center  235 is at  -4.943254 -0.261179 -0.000995
      ESP Fit Center  236 is at  -4.740378 -0.630209 -0.000995
      ESP Fit Center  237 is at  -2.961230  1.924731 -0.435811
      ESP Fit Center  238 is at  -3.381230  1.980025 -0.435811
      ESP Fit Center  239 is at  -3.801230  1.924731 -0.435811
      ESP Fit Center  240 is at  -4.192607  1.762617 -0.435811
      ESP Fit Center  241 is at  -4.528691  1.504731 -0.435811
      ESP Fit Center  242 is at  -4.786577  1.168648 -0.435811
      ESP Fit Center  243 is at  -4.948691  0.777270 -0.435811
      ESP Fit Center  244 is at  -5.003985  0.357270 -0.435811
      ESP Fit Center  245 is at  -4.948691 -0.062730 -0.435811
      ESP Fit Center  246 is at  -4.786577 -0.454108 -0.435811
      ESP Fit Center  247 is at  -4.528691 -0.790191 -0.435811
      ESP Fit Center  248 is at  -2.849687  1.711619 -0.840995
      ESP Fit Center  249 is at  -3.272503  1.808124 -0.840995
      ESP Fit Center  250 is at  -3.704980  1.775715 -0.840995
      ESP Fit Center  251 is at  -4.108691  1.617270 -0.840995
      ESP Fit Center  252 is at  -4.447763  1.346869 -0.840995
      ESP Fit Center  253 is at  -4.692070  0.988537 -0.840995
      ESP Fit Center  254 is at  -4.819902  0.574115 -0.840995
      ESP Fit Center  255 is at  -4.819902  0.140425 -0.840995
      ESP Fit Center  256 is at  -4.692070 -0.273997 -0.840995
      ESP Fit Center  257 is at  -4.447763 -0.632329 -0.840995
      ESP Fit Center  258 is at  -2.851719  1.420670 -1.188935
      ESP Fit Center  259 is at  -3.271620  1.540142 -1.188935
      ESP Fit Center  260 is at  -3.706325  1.499860 -1.188935
      ESP Fit Center  261 is at  -4.097123  1.305266 -1.188935
      ESP Fit Center  262 is at  -4.391236  0.982639 -1.188935
      ESP Fit Center  263 is at  -4.548942  0.575553 -1.188935
      ESP Fit Center  264 is at  -4.548942  0.138987 -1.188935
      ESP Fit Center  265 is at  -4.391236 -0.268100 -1.188935
      ESP Fit Center  266 is at  -3.381230  1.197270 -1.455918
      ESP Fit Center  267 is at  -3.801230  1.084731 -1.455918
      ESP Fit Center  268 is at  -4.108691  0.777270 -1.455918
      ESP Fit Center  269 is at  -4.221230  0.357270 -1.455918
      ESP Fit Center  270 is at  -4.108691 -0.062730 -1.455918
      ESP Fit Center  271 is at  -3.598638  0.733832 -1.623751
      ESP Fit Center  272 is at  -3.816046  0.357270 -1.623751
      ESP Fit Center  273 is at  -2.869345 -2.355666 -0.040904
      ESP Fit Center  274 is at  -2.436868 -2.388076 -0.040904
      ESP Fit Center  275 is at  -3.950942 -1.748599 -0.446088
      ESP Fit Center  276 is at  -3.693056 -2.084683 -0.446088
      ESP Fit Center  277 is at  -3.356972 -2.342569 -0.446088
      ESP Fit Center  278 is at  -2.965594 -2.504683 -0.446088
      ESP Fit Center  279 is at  -2.545594 -2.559977 -0.446088
      ESP Fit Center  280 is at  -2.125594 -2.504683 -0.446088
      ESP Fit Center  281 is at  -1.734217 -2.342569 -0.446088
      ESP Fit Center  282 is at  -1.398133 -2.084683 -0.446088
      ESP Fit Center  283 is at  -4.212347 -1.147782 -0.880904
      ESP Fit Center  284 is at  -4.107619 -1.555671 -0.880904
      ESP Fit Center  285 is at  -3.904743 -1.924701 -0.880904
      ESP Fit Center  286 is at  -3.616467 -2.231684 -0.880904
      ESP Fit Center  287 is at  -3.260904 -2.457331 -0.880904
      ESP Fit Center  288 is at  -2.860395 -2.587464 -0.880904
      ESP Fit Center  289 is at  -2.440106 -2.613907 -0.880904
      ESP Fit Center  290 is at  -2.026446 -2.534997 -0.880904
      ESP Fit Center  291 is at  -1.645405 -2.355693 -0.880904
      ESP Fit Center  292 is at  -1.320927 -2.087261 -0.880904
      ESP Fit Center  293 is at  -4.168350 -0.937222 -1.315720
      ESP Fit Center  294 is at  -4.113056 -1.357222 -1.315720
      ESP Fit Center  295 is at  -3.950942 -1.748599 -1.315720
      ESP Fit Center  296 is at  -3.693056 -2.084683 -1.315720
      ESP Fit Center  297 is at  -3.356972 -2.342569 -1.315720
      ESP Fit Center  298 is at  -2.965594 -2.504683 -1.315720
      ESP Fit Center  299 is at  -2.545594 -2.559977 -1.315720
      ESP Fit Center  300 is at  -2.125594 -2.504683 -1.315720
      ESP Fit Center  301 is at  -1.734217 -2.342569 -1.315720
      ESP Fit Center  302 is at  -1.398133 -2.084683 -1.315720
      ESP Fit Center  303 is at  -3.856434 -0.305954 -1.720904
      ESP Fit Center  304 is at  -3.984267 -0.720377 -1.720904
      ESP Fit Center  305 is at  -3.984267 -1.154067 -1.720904
      ESP Fit Center  306 is at  -3.856434 -1.568489 -1.720904
      ESP Fit Center  307 is at  -3.612128 -1.926820 -1.720904
      ESP Fit Center  308 is at  -3.273056 -2.197222 -1.720904
      ESP Fit Center  309 is at  -2.869345 -2.355666 -1.720904
      ESP Fit Center  310 is at  -2.436868 -2.388076 -1.720904
      ESP Fit Center  311 is at  -2.014051 -2.291571 -1.720904
      ESP Fit Center  312 is at  -1.638465 -2.074726 -1.720904
      ESP Fit Center  313 is at  -1.343481 -1.756809 -1.720904
      ESP Fit Center  314 is at  -1.357655 -0.937222 -2.068843
      ESP Fit Center  315 is at  -1.437874 -0.508088 -2.068843
      ESP Fit Center  316 is at  -1.667696 -0.136912 -2.068843
      ESP Fit Center  317 is at  -2.016084  0.126178 -2.068843
      ESP Fit Center  318 is at  -2.435985  0.245650 -2.068843
      ESP Fit Center  319 is at  -2.870689  0.205369 -2.068843
      ESP Fit Center  320 is at  -3.261488  0.010774 -2.068843
      ESP Fit Center  321 is at  -3.555601 -0.311852 -2.068843
      ESP Fit Center  322 is at  -3.713307 -0.718938 -2.068843
      ESP Fit Center  323 is at  -3.713307 -1.155505 -2.068843
      ESP Fit Center  324 is at  -3.555601 -1.562591 -2.068843
      ESP Fit Center  325 is at  -3.261488 -1.885218 -2.068843
      ESP Fit Center  326 is at  -2.870689 -2.079812 -2.068843
      ESP Fit Center  327 is at  -2.435985 -2.120094 -2.068843
      ESP Fit Center  328 is at  -2.016084 -2.000621 -2.068843
      ESP Fit Center  329 is at  -1.667696 -1.737531 -2.068843
      ESP Fit Center  330 is at  -1.437874 -1.366355 -2.068843
      ESP Fit Center  331 is at  -1.705594 -0.937222 -2.335827
      ESP Fit Center  332 is at  -1.818133 -0.517222 -2.335827
      ESP Fit Center  333 is at  -2.125594 -0.209760 -2.335827
      ESP Fit Center  334 is at  -2.545594 -0.097222 -2.335827
      ESP Fit Center  335 is at  -2.965594 -0.209760 -2.335827
      ESP Fit Center  336 is at  -3.273056 -0.517222 -2.335827
      ESP Fit Center  337 is at  -3.385594 -0.937222 -2.335827
      ESP Fit Center  338 is at  -3.273056 -1.357222 -2.335827
      ESP Fit Center  339 is at  -2.965594 -1.664683 -2.335827
      ESP Fit Center  340 is at  -2.545594 -1.777222 -2.335827
      ESP Fit Center  341 is at  -2.125594 -1.664683 -2.335827
      ESP Fit Center  342 is at  -1.818133 -1.357222 -2.335827
      ESP Fit Center  343 is at  -2.110778 -0.937222 -2.503659
      ESP Fit Center  344 is at  -2.328186 -0.560660 -2.503659
      ESP Fit Center  345 is at  -2.763002 -0.560660 -2.503659
      ESP Fit Center  346 is at  -2.980410 -0.937222 -2.503659
      ESP Fit Center  347 is at  -2.763002 -1.313783 -2.503659
      ESP Fit Center  348 is at  -2.328186 -1.313783 -2.503659
      ESP Fit Center  349 is at  -2.545594 -0.937222 -2.560904
      ESP Fit Center  350 is at  -2.540663 -0.921029  2.571623
      ESP Fit Center  351 is at  -2.105847 -0.921029  2.514378
      ESP Fit Center  352 is at  -2.323255 -0.544467  2.514378
      ESP Fit Center  353 is at  -2.758071 -0.544467  2.514378
      ESP Fit Center  354 is at  -2.975479 -0.921029  2.514378
      ESP Fit Center  355 is at  -2.758071 -1.297591  2.514378
      ESP Fit Center  356 is at  -2.323255 -1.297591  2.514378
      ESP Fit Center  357 is at  -1.700663 -0.921029  2.346546
      ESP Fit Center  358 is at  -1.813201 -0.501029  2.346546
      ESP Fit Center  359 is at  -2.120663 -0.193568  2.346546
      ESP Fit Center  360 is at  -2.540663 -0.081029  2.346546
      ESP Fit Center  361 is at  -2.960663 -0.193568  2.346546
      ESP Fit Center  362 is at  -3.268124 -0.501029  2.346546
      ESP Fit Center  363 is at  -3.380663 -0.921029  2.346546
      ESP Fit Center  364 is at  -3.268124 -1.341029  2.346546
      ESP Fit Center  365 is at  -2.960663 -1.648490  2.346546
      ESP Fit Center  366 is at  -2.540663 -1.761029  2.346546
      ESP Fit Center  367 is at  -2.120663 -1.648490  2.346546
      ESP Fit Center  368 is at  -1.813201 -1.341029  2.346546
      ESP Fit Center  369 is at  -1.352723 -0.921029  2.079562
      ESP Fit Center  370 is at  -1.432942 -0.491896  2.079562
      ESP Fit Center  371 is at  -1.662765 -0.120720  2.079562
      ESP Fit Center  372 is at  -2.011153  0.142371  2.079562
      ESP Fit Center  373 is at  -2.431053  0.261843  2.079562
      ESP Fit Center  374 is at  -2.865758  0.221561  2.079562
      ESP Fit Center  375 is at  -3.256556  0.026967  2.079562
      ESP Fit Center  376 is at  -3.550669 -0.295660  2.079562
      ESP Fit Center  377 is at  -3.708375 -0.702746  2.079562
      ESP Fit Center  378 is at  -3.708375 -1.139312  2.079562
      ESP Fit Center  379 is at  -3.550669 -1.546399  2.079562
      ESP Fit Center  380 is at  -3.256556 -1.869025  2.079562
      ESP Fit Center  381 is at  -2.865758 -2.063620  2.079562
      ESP Fit Center  382 is at  -2.431053 -2.103901  2.079562
      ESP Fit Center  383 is at  -2.011153 -1.984429  2.079562
      ESP Fit Center  384 is at  -1.662765 -1.721339  2.079562
      ESP Fit Center  385 is at  -1.432942 -1.350162  2.079562
      ESP Fit Center  386 is at  -3.851503 -0.289762  1.731623
      ESP Fit Center  387 is at  -3.979335 -0.704184  1.731623
      ESP Fit Center  388 is at  -3.979335 -1.137874  1.731623
      ESP Fit Center  389 is at  -3.851503 -1.552296  1.731623
      ESP Fit Center  390 is at  -3.607196 -1.910628  1.731623
      ESP Fit Center  391 is at  -3.268124 -2.181029  1.731623
      ESP Fit Center  392 is at  -2.864413 -2.339474  1.731623
      ESP Fit Center  393 is at  -2.431936 -2.371884  1.731623
      ESP Fit Center  394 is at  -2.009120 -2.275378  1.731623
      ESP Fit Center  395 is at  -1.633533 -2.058534  1.731623
      ESP Fit Center  396 is at  -1.338549 -1.740616  1.731623
      ESP Fit Center  397 is at  -4.163418 -0.921029  1.326439
      ESP Fit Center  398 is at  -4.108124 -1.341029  1.326439
      ESP Fit Center  399 is at  -3.946010 -1.732407  1.326439
      ESP Fit Center  400 is at  -3.688124 -2.068490  1.326439
      ESP Fit Center  401 is at  -3.352040 -2.326377  1.326439
      ESP Fit Center  402 is at  -2.960663 -2.488490  1.326439
      ESP Fit Center  403 is at  -2.540663 -2.543785  1.326439
      ESP Fit Center  404 is at  -2.120663 -2.488490  1.326439
      ESP Fit Center  405 is at  -1.729285 -2.326377  1.326439
      ESP Fit Center  406 is at  -1.393201 -2.068490  1.326439
      ESP Fit Center  407 is at  -4.207415 -1.131589  0.891623
      ESP Fit Center  408 is at  -4.102687 -1.539478  0.891623
      ESP Fit Center  409 is at  -3.899811 -1.908508  0.891623
      ESP Fit Center  410 is at  -3.611535 -2.215491  0.891623
      ESP Fit Center  411 is at  -3.255972 -2.441139  0.891623
      ESP Fit Center  412 is at  -2.855463 -2.571272  0.891623
      ESP Fit Center  413 is at  -2.435175 -2.597714  0.891623
      ESP Fit Center  414 is at  -2.021514 -2.518804  0.891623
      ESP Fit Center  415 is at  -1.640474 -2.339500  0.891623
      ESP Fit Center  416 is at  -1.315995 -2.071068  0.891623
      ESP Fit Center  417 is at  -3.688124 -2.068490  0.456807
      ESP Fit Center  418 is at  -3.352040 -2.326377  0.456807
      ESP Fit Center  419 is at  -2.960663 -2.488490  0.456807
      ESP Fit Center  420 is at  -2.540663 -2.543785  0.456807
      ESP Fit Center  421 is at  -2.120663 -2.488490  0.456807
      ESP Fit Center  422 is at  -1.729285 -2.326377  0.456807
      ESP Fit Center  423 is at  -1.393201 -2.068490  0.456807
      ESP Fit Center  424 is at  -1.102194  2.636621 -0.043792
      ESP Fit Center  425 is at  -0.063459  2.333228 -0.448976
      ESP Fit Center  426 is at  -0.399542  2.591114 -0.448976
      ESP Fit Center  427 is at  -0.790920  2.753228 -0.448976
      ESP Fit Center  428 is at  -1.210920  2.808522 -0.448976
      ESP Fit Center  429 is at  -1.630920  2.753228 -0.448976
      ESP Fit Center  430 is at  -2.022298  2.591114 -0.448976
      ESP Fit Center  431 is at  -2.358381  2.333228 -0.448976
      ESP Fit Center  432 is at   0.013747  2.335805 -0.883792
      ESP Fit Center  433 is at  -0.310731  2.604237 -0.883792
      ESP Fit Center  434 is at  -0.691772  2.783541 -0.883792
      ESP Fit Center  435 is at  -1.105432  2.862451 -0.883792
      ESP Fit Center  436 is at  -1.525721  2.836009 -0.883792
      ESP Fit Center  437 is at  -1.926229  2.705876 -0.883792
      ESP Fit Center  438 is at  -2.281792  2.480228 -0.883792
      ESP Fit Center  439 is at  -2.570069  2.173245 -0.883792
      ESP Fit Center  440 is at  -2.772945  1.804215 -0.883792
      ESP Fit Center  441 is at  -0.063459  2.333228 -1.318608
      ESP Fit Center  442 is at  -0.399542  2.591114 -1.318608
      ESP Fit Center  443 is at  -0.790920  2.753228 -1.318608
      ESP Fit Center  444 is at  -1.210920  2.808522 -1.318608
      ESP Fit Center  445 is at  -1.630920  2.753228 -1.318608
      ESP Fit Center  446 is at  -2.022298  2.591114 -1.318608
      ESP Fit Center  447 is at  -2.358381  2.333228 -1.318608
      ESP Fit Center  448 is at  -2.616267  1.997144 -1.318608
      ESP Fit Center  449 is at  -2.778381  1.605766 -1.318608
      ESP Fit Center  450 is at  -0.008807  2.005353 -1.723792
      ESP Fit Center  451 is at  -0.303791  2.323271 -1.723792
      ESP Fit Center  452 is at  -0.679377  2.540115 -1.723792
      ESP Fit Center  453 is at  -1.102194  2.636621 -1.723792
      ESP Fit Center  454 is at  -1.534671  2.604211 -1.723792
      ESP Fit Center  455 is at  -1.938381  2.445766 -1.723792
      ESP Fit Center  456 is at  -2.277454  2.175365 -1.723792
      ESP Fit Center  457 is at  -2.521760  1.817033 -1.723792
      ESP Fit Center  458 is at  -2.649592  1.402611 -1.723792
      ESP Fit Center  459 is at  -2.649592  0.968921 -1.723792
      ESP Fit Center  460 is at  -0.022981  1.185766 -2.071731
      ESP Fit Center  461 is at  -0.103200  1.614899 -2.071731
      ESP Fit Center  462 is at  -0.333022  1.986076 -2.071731
      ESP Fit Center  463 is at  -0.681410  2.249166 -2.071731
      ESP Fit Center  464 is at  -1.101311  2.368638 -2.071731
      ESP Fit Center  465 is at  -1.536015  2.328357 -2.071731
      ESP Fit Center  466 is at  -1.926813  2.133762 -2.071731
      ESP Fit Center  467 is at  -2.220926  1.811136 -2.071731
      ESP Fit Center  468 is at  -2.378633  1.404049 -2.071731
      ESP Fit Center  469 is at  -2.378633  0.967483 -2.071731
      ESP Fit Center  470 is at  -2.220926  0.560397 -2.071731
      ESP Fit Center  471 is at  -1.926813  0.237770 -2.071731
      ESP Fit Center  472 is at  -1.536015  0.043176 -2.071731
      ESP Fit Center  473 is at  -1.101311  0.002894 -2.071731
      ESP Fit Center  474 is at  -0.681410  0.122366 -2.071731
      ESP Fit Center  475 is at  -0.333022  0.385457 -2.071731
      ESP Fit Center  476 is at  -0.103200  0.756633 -2.071731
      ESP Fit Center  477 is at  -0.370920  1.185766 -2.338714
      ESP Fit Center  478 is at  -0.483459  1.605766 -2.338714
      ESP Fit Center  479 is at  -0.790920  1.913228 -2.338714
      ESP Fit Center  480 is at  -1.210920  2.025766 -2.338714
      ESP Fit Center  481 is at  -1.630920  1.913228 -2.338714
      ESP Fit Center  482 is at  -1.938381  1.605766 -2.338714
      ESP Fit Center  483 is at  -2.050920  1.185766 -2.338714
      ESP Fit Center  484 is at  -1.938381  0.765766 -2.338714
      ESP Fit Center  485 is at  -1.630920  0.458305 -2.338714
      ESP Fit Center  486 is at  -1.210920  0.345766 -2.338714
      ESP Fit Center  487 is at  -0.790920  0.458305 -2.338714
      ESP Fit Center  488 is at  -0.483459  0.765766 -2.338714
      ESP Fit Center  489 is at  -0.776104  1.185766 -2.506547
      ESP Fit Center  490 is at  -0.993512  1.562328 -2.506547
      ESP Fit Center  491 is at  -1.428328  1.562328 -2.506547
      ESP Fit Center  492 is at  -1.645736  1.185766 -2.506547
      ESP Fit Center  493 is at  -1.428328  0.809204 -2.506547
      ESP Fit Center  494 is at  -0.993512  0.809204 -2.506547
      ESP Fit Center  495 is at  -1.210920  1.185766 -2.563792
      ESP Fit Center  496 is at  -1.211718  1.187093  2.561375
      ESP Fit Center  497 is at  -0.776902  1.187093  2.504130
      ESP Fit Center  498 is at  -0.994310  1.563655  2.504130
      ESP Fit Center  499 is at  -1.429126  1.563655  2.504130
      ESP Fit Center  500 is at  -1.646534  1.187093  2.504130
      ESP Fit Center  501 is at  -1.429126  0.810531  2.504130
      ESP Fit Center  502 is at  -0.994310  0.810531  2.504130
      ESP Fit Center  503 is at  -0.371718  1.187093  2.336297
      ESP Fit Center  504 is at  -0.484257  1.607093  2.336297
      ESP Fit Center  505 is at  -0.791718  1.914554  2.336297
      ESP Fit Center  506 is at  -1.211718  2.027093  2.336297
      ESP Fit Center  507 is at  -1.631718  1.914554  2.336297
      ESP Fit Center  508 is at  -1.939180  1.607093  2.336297
      ESP Fit Center  509 is at  -2.051718  1.187093  2.336297
      ESP Fit Center  510 is at  -1.939180  0.767093  2.336297
      ESP Fit Center  511 is at  -1.631718  0.459632  2.336297
      ESP Fit Center  512 is at  -1.211718  0.347093  2.336297
      ESP Fit Center  513 is at  -0.791718  0.459632  2.336297
      ESP Fit Center  514 is at  -0.484257  0.767093  2.336297
      ESP Fit Center  515 is at  -0.023779  1.187093  2.069314
      ESP Fit Center  516 is at  -0.103998  1.616226  2.069314
      ESP Fit Center  517 is at  -0.333821  1.987403  2.069314
      ESP Fit Center  518 is at  -0.682208  2.250493  2.069314
      ESP Fit Center  519 is at  -1.102109  2.369965  2.069314
      ESP Fit Center  520 is at  -1.536814  2.329684  2.069314
      ESP Fit Center  521 is at  -1.927612  2.135089  2.069314
      ESP Fit Center  522 is at  -2.221725  1.812463  2.069314
      ESP Fit Center  523 is at  -2.379431  1.405376  2.069314
      ESP Fit Center  524 is at  -2.379431  0.968810  2.069314
      ESP Fit Center  525 is at  -2.221725  0.561724  2.069314
      ESP Fit Center  526 is at  -1.927612  0.239097  2.069314
      ESP Fit Center  527 is at  -1.536814  0.044502  2.069314
      ESP Fit Center  528 is at  -1.102109  0.004221  2.069314
      ESP Fit Center  529 is at  -0.682208  0.123693  2.069314
      ESP Fit Center  530 is at  -0.333821  0.386783  2.069314
      ESP Fit Center  531 is at  -0.103998  0.757960  2.069314
      ESP Fit Center  532 is at  -0.009605  2.006680  1.721375
      ESP Fit Center  533 is at  -0.304589  2.324597  1.721375
      ESP Fit Center  534 is at  -0.680176  2.541442  1.721375
      ESP Fit Center  535 is at  -1.102992  2.637947  1.721375
      ESP Fit Center  536 is at  -1.535469  2.605538  1.721375
      ESP Fit Center  537 is at  -1.939180  2.447093  1.721375
      ESP Fit Center  538 is at  -2.278252  2.176692  1.721375
      ESP Fit Center  539 is at  -2.522559  1.818360  1.721375
      ESP Fit Center  540 is at  -2.650391  1.403938  1.721375
      ESP Fit Center  541 is at  -2.650391  0.970248  1.721375
      ESP Fit Center  542 is at  -0.064257  2.334554  1.316191
      ESP Fit Center  543 is at  -0.400341  2.592440  1.316191
      ESP Fit Center  544 is at  -0.791718  2.754554  1.316191
      ESP Fit Center  545 is at  -1.211718  2.809848  1.316191
      ESP Fit Center  546 is at  -1.631718  2.754554  1.316191
      ESP Fit Center  547 is at  -2.023096  2.592440  1.316191
      ESP Fit Center  548 is at  -2.359180  2.334554  1.316191
      ESP Fit Center  549 is at  -2.617066  1.998471  1.316191
      ESP Fit Center  550 is at  -2.779180  1.607093  1.316191
      ESP Fit Center  551 is at   0.012949  2.337132  0.881375
      ESP Fit Center  552 is at  -0.311529  2.605564  0.881375
      ESP Fit Center  553 is at  -0.692570  2.784868  0.881375
      ESP Fit Center  554 is at  -1.106230  2.863778  0.881375
      ESP Fit Center  555 is at  -1.526519  2.837336  0.881375
      ESP Fit Center  556 is at  -1.927028  2.707202  0.881375
      ESP Fit Center  557 is at  -2.282591  2.481555  0.881375
      ESP Fit Center  558 is at  -2.570867  2.174572  0.881375
      ESP Fit Center  559 is at  -2.773743  1.805542  0.881375
      ESP Fit Center  560 is at  -0.064257  2.334554  0.446559
      ESP Fit Center  561 is at  -0.400341  2.592440  0.446559
      ESP Fit Center  562 is at  -0.791718  2.754554  0.446559
      ESP Fit Center  563 is at  -1.211718  2.809848  0.446559
      ESP Fit Center  564 is at  -1.631718  2.754554  0.446559
      ESP Fit Center  565 is at  -2.023096  2.592440  0.446559
      ESP Fit Center  566 is at  -2.359180  2.334554  0.446559
      ESP Fit Center  567 is at  -1.102992  2.637947  0.041375
      ESP Fit Center  568 is at   0.012393 -1.014776  2.555130
      ESP Fit Center  569 is at   0.447209 -1.014776  2.497885
      ESP Fit Center  570 is at   0.229801 -0.638214  2.497885
      ESP Fit Center  571 is at  -0.205015 -0.638214  2.497885
      ESP Fit Center  572 is at  -0.422423 -1.014776  2.497885
      ESP Fit Center  573 is at  -0.205015 -1.391337  2.497885
      ESP Fit Center  574 is at   0.229801 -1.391337  2.497885
      ESP Fit Center  575 is at   0.852393 -1.014776  2.330052
      ESP Fit Center  576 is at   0.739855 -0.594776  2.330052
      ESP Fit Center  577 is at   0.432393 -0.287314  2.330052
      ESP Fit Center  578 is at   0.012393 -0.174776  2.330052
      ESP Fit Center  579 is at  -0.407607 -0.287314  2.330052
      ESP Fit Center  580 is at  -0.715068 -0.594776  2.330052
      ESP Fit Center  581 is at  -0.827607 -1.014776  2.330052
      ESP Fit Center  582 is at  -0.715068 -1.434776  2.330052
      ESP Fit Center  583 is at  -0.407607 -1.742237  2.330052
      ESP Fit Center  584 is at   0.012393 -1.854776  2.330052
      ESP Fit Center  585 is at   0.432393 -1.742237  2.330052
      ESP Fit Center  586 is at   0.739855 -1.434776  2.330052
      ESP Fit Center  587 is at   1.200333 -1.014776  2.063069
      ESP Fit Center  588 is at   1.120114 -0.585642  2.063069
      ESP Fit Center  589 is at   0.890291 -0.214466  2.063069
      ESP Fit Center  590 is at   0.541903  0.048624  2.063069
      ESP Fit Center  591 is at   0.122002  0.168096  2.063069
      ESP Fit Center  592 is at  -0.312702  0.127815  2.063069
      ESP Fit Center  593 is at  -0.703500 -0.066780  2.063069
      ESP Fit Center  594 is at  -0.997613 -0.389406  2.063069
      ESP Fit Center  595 is at  -1.155319 -0.796492  2.063069
      ESP Fit Center  596 is at  -1.155319 -1.233059  2.063069
      ESP Fit Center  597 is at  -0.997613 -1.640145  2.063069
      ESP Fit Center  598 is at  -0.703500 -1.962772  2.063069
      ESP Fit Center  599 is at  -0.312702 -2.157366  2.063069
      ESP Fit Center  600 is at   0.122002 -2.197647  2.063069
      ESP Fit Center  601 is at   0.541903 -2.078175  2.063069
      ESP Fit Center  602 is at   0.890291 -1.815085  2.063069
      ESP Fit Center  603 is at   1.120114 -1.443909  2.063069
      ESP Fit Center  604 is at   1.467316 -1.014776  1.715130
      ESP Fit Center  605 is at  -1.054141 -2.004374  1.715130
      ESP Fit Center  606 is at  -0.715068 -2.274776  1.715130
      ESP Fit Center  607 is at  -0.311358 -2.433220  1.715130
      ESP Fit Center  608 is at   0.121120 -2.465630  1.715130
      ESP Fit Center  609 is at   0.543936 -2.369125  1.715130
      ESP Fit Center  610 is at   0.919523 -2.152280  1.715130
      ESP Fit Center  611 is at   1.214507 -1.834363  1.715130
      ESP Fit Center  612 is at   1.402678 -1.443622  1.715130
      ESP Fit Center  613 is at  -1.135068 -2.162237  1.309946
      ESP Fit Center  614 is at  -0.798984 -2.420123  1.309946
      ESP Fit Center  615 is at  -0.407607 -2.582237  1.309946
      ESP Fit Center  616 is at   0.012393 -2.637531  1.309946
      ESP Fit Center  617 is at   0.432393 -2.582237  1.309946
      ESP Fit Center  618 is at   0.823771 -2.420123  1.309946
      ESP Fit Center  619 is at   1.159855 -2.162237  1.309946
      ESP Fit Center  620 is at   1.417741 -1.826153  1.309946
      ESP Fit Center  621 is at  -1.058479 -2.309238  0.875130
      ESP Fit Center  622 is at  -0.702916 -2.534885  0.875130
      ESP Fit Center  623 is at  -0.302407 -2.665018  0.875130
      ESP Fit Center  624 is at   0.117881 -2.691461  0.875130
      ESP Fit Center  625 is at   0.531542 -2.612551  0.875130
      ESP Fit Center  626 is at   0.912582 -2.433247  0.875130
      ESP Fit Center  627 is at   1.237061 -2.164815  0.875130
      ESP Fit Center  628 is at  -1.135068 -2.162237  0.440314
      ESP Fit Center  629 is at  -0.798984 -2.420123  0.440314
      ESP Fit Center  630 is at  -0.407607 -2.582237  0.440314
      ESP Fit Center  631 is at   0.012393 -2.637531  0.440314
      ESP Fit Center  632 is at   0.432393 -2.582237  0.440314
      ESP Fit Center  633 is at   0.823771 -2.420123  0.440314
      ESP Fit Center  634 is at   1.159855 -2.162237  0.440314
      ESP Fit Center  635 is at  -0.311358 -2.433220  0.035130
      ESP Fit Center  636 is at   0.121120 -2.465630  0.035130
      ESP Fit Center  637 is at  -0.311126 -2.433788 -0.035370
      ESP Fit Center  638 is at   0.121351 -2.466197 -0.035370
      ESP Fit Center  639 is at  -1.134836 -2.162804 -0.440554
      ESP Fit Center  640 is at  -0.798753 -2.420690 -0.440554
      ESP Fit Center  641 is at  -0.407375 -2.582804 -0.440554
      ESP Fit Center  642 is at   0.012625 -2.638098 -0.440554
      ESP Fit Center  643 is at   0.432625 -2.582804 -0.440554
      ESP Fit Center  644 is at   0.824003 -2.420690 -0.440554
      ESP Fit Center  645 is at   1.160086 -2.162804 -0.440554
      ESP Fit Center  646 is at  -1.058247 -2.309805 -0.875370
      ESP Fit Center  647 is at  -0.702684 -2.535452 -0.875370
      ESP Fit Center  648 is at  -0.302176 -2.665585 -0.875370
      ESP Fit Center  649 is at   0.118113 -2.692028 -0.875370
      ESP Fit Center  650 is at   0.531773 -2.613118 -0.875370
      ESP Fit Center  651 is at   0.912814 -2.433814 -0.875370
      ESP Fit Center  652 is at   1.237292 -2.165382 -0.875370
      ESP Fit Center  653 is at  -1.134836 -2.162804 -1.310186
      ESP Fit Center  654 is at  -0.798753 -2.420690 -1.310186
      ESP Fit Center  655 is at  -0.407375 -2.582804 -1.310186
      ESP Fit Center  656 is at   0.012625 -2.638098 -1.310186
      ESP Fit Center  657 is at   0.432625 -2.582804 -1.310186
      ESP Fit Center  658 is at   0.824003 -2.420690 -1.310186
      ESP Fit Center  659 is at   1.160086 -2.162804 -1.310186
      ESP Fit Center  660 is at   1.417972 -1.826721 -1.310186
      ESP Fit Center  661 is at   1.467548 -1.015343 -1.715370
      ESP Fit Center  662 is at  -1.053909 -2.004942 -1.715370
      ESP Fit Center  663 is at  -0.714836 -2.275343 -1.715370
      ESP Fit Center  664 is at  -0.311126 -2.433788 -1.715370
      ESP Fit Center  665 is at   0.121351 -2.466197 -1.715370
      ESP Fit Center  666 is at   0.544168 -2.369692 -1.715370
      ESP Fit Center  667 is at   0.919754 -2.152847 -1.715370
      ESP Fit Center  668 is at   1.214738 -1.834930 -1.715370
      ESP Fit Center  669 is at   1.402909 -1.444189 -1.715370
      ESP Fit Center  670 is at   1.200564 -1.015343 -2.063309
      ESP Fit Center  671 is at   1.120345 -0.586210 -2.063309
      ESP Fit Center  672 is at   0.890523 -0.215033 -2.063309
      ESP Fit Center  673 is at   0.542135  0.048057 -2.063309
      ESP Fit Center  674 is at   0.122234  0.167529 -2.063309
      ESP Fit Center  675 is at  -0.312470  0.127248 -2.063309
      ESP Fit Center  676 is at  -0.703269 -0.067347 -2.063309
      ESP Fit Center  677 is at  -0.997382 -0.389973 -2.063309
      ESP Fit Center  678 is at  -1.155088 -0.797060 -2.063309
      ESP Fit Center  679 is at  -1.155088 -1.233626 -2.063309
      ESP Fit Center  680 is at  -0.997382 -1.640712 -2.063309
      ESP Fit Center  681 is at  -0.703269 -1.963339 -2.063309
      ESP Fit Center  682 is at  -0.312470 -2.157933 -2.063309
      ESP Fit Center  683 is at   0.122234 -2.198215 -2.063309
      ESP Fit Center  684 is at   0.542135 -2.078743 -2.063309
      ESP Fit Center  685 is at   0.890523 -1.815652 -2.063309
      ESP Fit Center  686 is at   1.120345 -1.444476 -2.063309
      ESP Fit Center  687 is at   0.852625 -1.015343 -2.330293
      ESP Fit Center  688 is at   0.740086 -0.595343 -2.330293
      ESP Fit Center  689 is at   0.432625 -0.287881 -2.330293
      ESP Fit Center  690 is at   0.012625 -0.175343 -2.330293
      ESP Fit Center  691 is at  -0.407375 -0.287881 -2.330293
      ESP Fit Center  692 is at  -0.714836 -0.595343 -2.330293
      ESP Fit Center  693 is at  -0.827375 -1.015343 -2.330293
      ESP Fit Center  694 is at  -0.714836 -1.435343 -2.330293
      ESP Fit Center  695 is at  -0.407375 -1.742804 -2.330293
      ESP Fit Center  696 is at   0.012625 -1.855343 -2.330293
      ESP Fit Center  697 is at   0.432625 -1.742804 -2.330293
      ESP Fit Center  698 is at   0.740086 -1.435343 -2.330293
      ESP Fit Center  699 is at   0.447441 -1.015343 -2.498125
      ESP Fit Center  700 is at   0.230033 -0.638781 -2.498125
      ESP Fit Center  701 is at  -0.204783 -0.638781 -2.498125
      ESP Fit Center  702 is at  -0.422191 -1.015343 -2.498125
      ESP Fit Center  703 is at  -0.204783 -1.391905 -2.498125
      ESP Fit Center  704 is at   0.230033 -1.391905 -2.498125
      ESP Fit Center  705 is at   0.012625 -1.015343 -2.555370
      ESP Fit Center  706 is at   2.765223  1.911274 -0.457146
      ESP Fit Center  707 is at   2.507337  2.247358 -0.457146
      ESP Fit Center  708 is at   2.171253  2.505244 -0.457146
      ESP Fit Center  709 is at   1.779875  2.667358 -0.457146
      ESP Fit Center  710 is at   1.359875  2.722652 -0.457146
      ESP Fit Center  711 is at   0.939875  2.667358 -0.457146
      ESP Fit Center  712 is at   0.548498  2.505244 -0.457146
      ESP Fit Center  713 is at   0.212414  2.247358 -0.457146
      ESP Fit Center  714 is at   2.832070  1.909242 -0.891962
      ESP Fit Center  715 is at   2.584543  2.249935 -0.891962
      ESP Fit Center  716 is at   2.260064  2.518367 -0.891962
      ESP Fit Center  717 is at   1.879024  2.697671 -0.891962
      ESP Fit Center  718 is at   1.465363  2.776581 -0.891962
      ESP Fit Center  719 is at   1.045075  2.750139 -0.891962
      ESP Fit Center  720 is at   0.644566  2.620006 -0.891962
[...]
 3863 Fit      -0.001641
 3864 Fit      -0.002011
 3865 Fit      -0.001578
 3866 Fit      -0.001450
 3867 Fit      -0.001359
 3868 Fit      -0.001331
 3869 Fit      -0.001386
 3870 Fit      -0.001537
 3871 Fit      -0.001795
 3872 Fit      -0.002161
 3873 Fit      -0.002621
 3874 Fit      -0.003125
 3875 Fit      -0.001944
 3876 Fit      -0.001890
 3877 Fit      -0.001905
 3878 Fit      -0.002007
 3879 Fit      -0.002211
 3880 Fit      -0.002529
 3881 Fit      -0.002971
 3882 Fit      -0.003540
 3883 Fit      -0.004217
 3884 Fit      -0.002508
 3885 Fit      -0.002698
 3886 Fit      -0.003009
 3887 Fit      -0.003459
 3888 Fit       0.004393
 3889 Fit       0.003588
 3890 Fit       0.002966
 3891 Fit       0.002493
 3892 Fit       0.002154
 3893 Fit       0.005824
 3894 Fit       0.004839
 3895 Fit       0.004068
 3896 Fit       0.003459
 3897 Fit       0.002977
 3898 Fit       0.002603
 3899 Fit       0.002330
 3900 Fit       0.002164
 3901 Fit       0.005779
 3902 Fit       0.004904
 3903 Fit       0.004217
 3904 Fit       0.003665
 3905 Fit       0.003217
 3906 Fit       0.002853
 3907 Fit       0.002565
 3908 Fit       0.002352
 3909 Fit       0.002209
 3910 Fit       0.006456
 3911 Fit       0.005507
 3912 Fit       0.004779
 3913 Fit       0.004194
 3914 Fit       0.003708
 3915 Fit       0.003296
 3916 Fit       0.002943
 3917 Fit       0.002636
 3918 Fit       0.002357
 3919 Fit       0.002067
 3920 Fit       0.005920
 3921 Fit       0.005206
 3922 Fit       0.004622
 3923 Fit       0.004127
 3924 Fit       0.003694
 3925 Fit       0.003303
 3926 Fit       0.002940
 3927 Fit       0.002584
 3928 Fit       0.002199
 3929 Fit       0.001717
 3930 Fit       0.005799
 3931 Fit       0.005199
 3932 Fit       0.004671
 3933 Fit       0.004198
 3934 Fit       0.003763
 3935 Fit       0.003349
 3936 Fit       0.002938
 3937 Fit       0.002505
 3938 Fit       0.002011
 3939 Fit       0.005397
 3940 Fit       0.005006
 3941 Fit       0.004580
 3942 Fit       0.004152
 3943 Fit       0.003725
 3944 Fit       0.003294
 3945 Fit       0.002845
 3946 Fit       0.002363
 3947 Fit       0.001849
 3948 Fit       0.003895
 3949 Fit       0.004546
 3950 Fit       0.004729
 3951 Fit       0.004582
 3952 Fit       0.004269
 3953 Fit       0.003878
 3954 Fit       0.003444
 3955 Fit       0.002977
 3956 Fit       0.002492
 3957 Fit       0.002037
 3958 Fit       0.001725
 3959 Fit       0.001664
 3960 Fit       0.001771
 3961 Fit       0.001827
 3962 Fit       0.001800
 3963 Fit       0.001840
 3964 Fit       0.002178
 3965 Fit       0.002949
 3966 Fit       0.003467
 3967 Fit       0.003976
 3968 Fit       0.004042
 3969 Fit       0.003786
 3970 Fit       0.003361
 3971 Fit       0.002864
 3972 Fit       0.002397
 3973 Fit       0.002105
 3974 Fit       0.002031
 3975 Fit       0.002065
 3976 Fit       0.002239
 3977 Fit       0.002737
 3978 Fit       0.003182
 3979 Fit       0.003485
 3980 Fit       0.003192
 3981 Fit       0.002691
 3982 Fit       0.002443
 3983 Fit       0.002618
 3984 Fit       0.002941
 3985 Fit       0.002944
 3986 Fit       0.003185
 3987 Fit       0.003488
 3988 Fit       0.003194
 3989 Fit       0.002693
 3990 Fit       0.002445
 3991 Fit       0.002621
 3992 Fit       0.003472
 3993 Fit       0.003979
 3994 Fit       0.004045
 3995 Fit       0.003789
 3996 Fit       0.003363
 3997 Fit       0.002864
 3998 Fit       0.002398
 3999 Fit       0.002106
 4000 Fit       0.002033
 4001 Fit       0.002068
 4002 Fit       0.002243
 4003 Fit       0.002741
 4004 Fit       0.003900
 4005 Fit       0.004551
 4006 Fit       0.004733
 4007 Fit       0.004585
 4008 Fit       0.004271
 4009 Fit       0.003880
 4010 Fit       0.003445
 4011 Fit       0.002978
 4012 Fit       0.002492
 4013 Fit       0.002037
 4014 Fit       0.001726
 4015 Fit       0.001667
 4016 Fit       0.001774
 4017 Fit       0.001830
 4018 Fit       0.001804
 4019 Fit       0.001844
 4020 Fit       0.002182
 4021 Fit       0.002954
 4022 Fit       0.005401
 4023 Fit       0.005009
 4024 Fit       0.004582
 4025 Fit       0.004153
 4026 Fit       0.003727
 4027 Fit       0.003294
 4028 Fit       0.002844
 4029 Fit       0.002362
 4030 Fit       0.001848
 4031 Fit       0.005803
 4032 Fit       0.005202
 4033 Fit       0.004673
 4034 Fit       0.004200
 4035 Fit       0.003764
 4036 Fit       0.003349
 4037 Fit       0.002937
 4038 Fit       0.002503
 4039 Fit       0.002009
 4040 Fit       0.005924
 4041 Fit       0.005208
 4042 Fit       0.004624
 4043 Fit       0.004129
 4044 Fit       0.003695
 4045 Fit       0.003304
 4046 Fit       0.002940
 4047 Fit       0.002583
 4048 Fit       0.002196
 4049 Fit       0.001713
 4050 Fit       0.006459
 4051 Fit       0.005510
 4052 Fit       0.004782
 4053 Fit       0.004196
 4054 Fit       0.003710
 4055 Fit       0.003297
 4056 Fit       0.002943
 4057 Fit       0.002635
 4058 Fit       0.002355
 4059 Fit       0.002063
 4060 Fit       0.005782
 4061 Fit       0.004906
 4062 Fit       0.004219
 4063 Fit       0.003667
 4064 Fit       0.003218
 4065 Fit       0.002853
 4066 Fit       0.002565
 4067 Fit       0.002350
 4068 Fit       0.002206
 4069 Fit       0.005826
 4070 Fit       0.004841
 4071 Fit       0.004070
 4072 Fit       0.003460
 4073 Fit       0.002978
 4074 Fit       0.002604
 4075 Fit       0.002330
 4076 Fit       0.002163
 4077 Fit       0.004395
 4078 Fit       0.003590
 4079 Fit       0.002967
 4080 Fit       0.002494
 4081 Fit       0.002154
 4082 Fit      -0.001436
 4083 Fit      -0.002764
 4084 Fit      -0.001345
 4085 Fit      -0.000325
 4086 Fit      -0.000446
 4087 Fit      -0.001456
 4088 Fit      -0.002696
 4089 Fit      -0.004607
 4090 Fit      -0.003009
 4091 Fit      -0.001096
 4092 Fit       0.000190
 4093 Fit       0.000681
 4094 Fit       0.000667
 4095 Fit       0.000335
 4096 Fit      -0.000377
 4097 Fit      -0.001472
 4098 Fit      -0.002809
 4099 Fit      -0.004142
 4100 Fit      -0.004962
 4101 Fit      -0.007248
 4102 Fit      -0.005366
 4103 Fit      -0.002822
 4104 Fit      -0.000558
 4105 Fit       0.000892
 4106 Fit       0.001539
 4107 Fit       0.001641
 4108 Fit       0.001490
 4109 Fit       0.001303
 4110 Fit       0.001038
 4111 Fit       0.000482
 4112 Fit      -0.000411
 4113 Fit      -0.001534
 4114 Fit      -0.002828
 4115 Fit      -0.004279
 4116 Fit      -0.005803
 4117 Fit      -0.007140
 4118 Fit      -0.007804
 4119 Fit      -0.011190
 4120 Fit      -0.000091
 4121 Fit      -0.001275
 4122 Fit      -0.002541
 4123 Fit      -0.003951
 4124 Fit      -0.005563
 4125 Fit      -0.007377
 4126 Fit      -0.009280
 4127 Fit      -0.010956
 4128 Fit      -0.011826
 4129 Fit      -0.000647
 4130 Fit      -0.001969
 4131 Fit      -0.003309
 4132 Fit      -0.004804
 4133 Fit      -0.006558
 4134 Fit      -0.008642
 4135 Fit      -0.011066
 4136 Fit      -0.013720
 4137 Fit      -0.016244
 4138 Fit      -0.001527
 4139 Fit      -0.002856
 4140 Fit      -0.004211
 4141 Fit      -0.005752
 4142 Fit      -0.007599
 4143 Fit      -0.009861
 4144 Fit      -0.012641
 4145 Fit      -0.016012
 4146 Fit      -0.003061
 4147 Fit      -0.004395
 4148 Fit      -0.005895
 4149 Fit      -0.007708
 4150 Fit      -0.009976
 4151 Fit      -0.012866
 4152 Fit      -0.016593
 4153 Fit      -0.021422
 4154 Fit      -0.003468
 4155 Fit      -0.004702
 4156 Fit      -0.006102
 4157 Fit      -0.007807
 4158 Fit      -0.009959
 4159 Fit      -0.012738
 4160 Fit      -0.016404
 4161 Fit      -0.021350
 4162 Fit      -0.004778
 4163 Fit      -0.005972
 4164 Fit      -0.007466
 4165 Fit      -0.009367
 4166 Fit      -0.011830
 4167 Fit      -0.015092
 4168 Fit      -0.019530
 4169 Fit      -0.006384
 4170 Fit      -0.007845
 4171 Fit      -0.009776
 4172 Fit      -0.012332
 4173 Fit      -0.015786
 4174 Fit      -0.006383
 4175 Fit      -0.007845
 4176 Fit      -0.009776
 4177 Fit      -0.012333
 4178 Fit      -0.015787
 4179 Fit      -0.004775
 4180 Fit      -0.005971
 4181 Fit      -0.007466
 4182 Fit      -0.009368
 4183 Fit      -0.011831
 4184 Fit      -0.015093
 4185 Fit      -0.019532
 4186 Fit      -0.003464
 4187 Fit      -0.004700
 4188 Fit      -0.006101
 4189 Fit      -0.007808
 4190 Fit      -0.009960
 4191 Fit      -0.012739
 4192 Fit      -0.016406
 4193 Fit      -0.021352
 4194 Fit      -0.003058
 4195 Fit      -0.004394
 4196 Fit      -0.005895
 4197 Fit      -0.007709
 4198 Fit      -0.009977
 4199 Fit      -0.012867
 4200 Fit      -0.016595
 4201 Fit      -0.021425
 4202 Fit      -0.001524
 4203 Fit      -0.002855
 4204 Fit      -0.004211
 4205 Fit      -0.005752
 4206 Fit      -0.007600
 4207 Fit      -0.009862
 4208 Fit      -0.012643
 4209 Fit      -0.016015
 4210 Fit      -0.000646
 4211 Fit      -0.001968
 4212 Fit      -0.003309
 4213 Fit      -0.004804
 4214 Fit      -0.006559
 4215 Fit      -0.008643
 4216 Fit      -0.011067
 4217 Fit      -0.013723
 4218 Fit      -0.016247
 4219 Fit      -0.011194
 4220 Fit      -0.000091
 4221 Fit      -0.001275
 4222 Fit      -0.002541
 4223 Fit      -0.003952
 4224 Fit      -0.005564
 4225 Fit      -0.007379
 4226 Fit      -0.009282
 4227 Fit      -0.010958
 4228 Fit      -0.011829
 4229 Fit      -0.007251
 4230 Fit      -0.005370
 4231 Fit      -0.002826
 4232 Fit      -0.000562
 4233 Fit       0.000888
 4234 Fit       0.001536
 4235 Fit       0.001638
 4236 Fit       0.001487
 4237 Fit       0.001300
 4238 Fit       0.001035
 4239 Fit       0.000480
 4240 Fit      -0.000412
 4241 Fit      -0.001534
 4242 Fit      -0.002829
 4243 Fit      -0.004281
 4244 Fit      -0.005805
 4245 Fit      -0.007142
 4246 Fit      -0.007806
 4247 Fit      -0.004610
 4248 Fit      -0.003012
 4249 Fit      -0.001099
 4250 Fit       0.000187
 4251 Fit       0.000679
 4252 Fit       0.000664
 4253 Fit       0.000333
 4254 Fit      -0.000379
 4255 Fit      -0.001473
 4256 Fit      -0.002810
 4257 Fit      -0.004144
 4258 Fit      -0.004964
 4259 Fit      -0.002766
 4260 Fit      -0.001348
 4261 Fit      -0.000328
 4262 Fit      -0.000448
 4263 Fit      -0.001458
 4264 Fit      -0.002698
 4265 Fit      -0.001438
 4266 Fit       0.008960
 4267 Fit       0.008086
 4268 Fit       0.007476
 4269 Fit       0.007015
 4270 Fit       0.013967
 4271 Fit       0.011614
 4272 Fit       0.009977
 4273 Fit       0.008833
 4274 Fit       0.008026
 4275 Fit       0.007447
 4276 Fit       0.007012
 4277 Fit       0.006651
 4278 Fit       0.006304
 4279 Fit       0.014406
 4280 Fit       0.012103
 4281 Fit       0.010416
 4282 Fit       0.009192
 4283 Fit       0.008309
 4284 Fit       0.007669
 4285 Fit       0.007199
 4286 Fit       0.006844
 4287 Fit       0.006573
 4288 Fit       0.013229
 4289 Fit       0.011617
 4290 Fit       0.010237
 4291 Fit       0.009146
 4292 Fit       0.008315
 4293 Fit       0.007692
 4294 Fit       0.007228
 4295 Fit       0.006883
 4296 Fit       0.006639
 4297 Fit       0.006518
 4298 Fit       0.010207
 4299 Fit       0.010009
 4300 Fit       0.009387
 4301 Fit       0.008692
 4302 Fit       0.008066
 4303 Fit       0.007549
 4304 Fit       0.007138
 4305 Fit       0.006821
 4306 Fit       0.006588
 4307 Fit       0.006457
 4308 Fit       0.005650
 4309 Fit       0.007198
 4310 Fit       0.007665
 4311 Fit       0.007602
 4312 Fit       0.007335
 4313 Fit       0.007025
 4314 Fit       0.006737
 4315 Fit       0.006492
 4316 Fit       0.006304
 4317 Fit       0.006201
 4318 Fit       0.003610
 4319 Fit       0.005304
 4320 Fit       0.006080
 4321 Fit       0.006325
 4322 Fit       0.006310
 4323 Fit       0.006188
 4324 Fit       0.006030
 4325 Fit       0.005876
 4326 Fit       0.005748
 4327 Fit       0.005644
 4328 Fit      -0.003173
 4329 Fit       0.000703
 4330 Fit       0.002561
 4331 Fit       0.004202
 4332 Fit       0.005056
 4333 Fit       0.005398
 4334 Fit       0.005460
 4335 Fit       0.005376
 4336 Fit       0.005206
 4337 Fit       0.004943
 4338 Fit       0.004490
 4339 Fit       0.003698
 4340 Fit       0.002532
 4341 Fit       0.001044
 4342 Fit      -0.000787
 4343 Fit      -0.002812
 4344 Fit      -0.004331
 4345 Fit      -0.004371
 4346 Fit      -0.002623
 4347 Fit       0.000085
 4348 Fit       0.002127
 4349 Fit       0.003657
 4350 Fit       0.004406
 4351 Fit       0.004604
 4352 Fit       0.004450
 4353 Fit       0.003980
 4354 Fit       0.003095
 4355 Fit       0.001757
 4356 Fit       0.000121
 4357 Fit      -0.001278
 4358 Fit      -0.001427
 4359 Fit       0.000053
 4360 Fit       0.002076
 4361 Fit       0.003357
 4362 Fit       0.003490
 4363 Fit       0.002620
 4364 Fit       0.001171
 4365 Fit       0.000685
 4366 Fit       0.002268
 4367 Fit       0.002271
 4368 Fit       0.002080
 4369 Fit       0.003360
 4370 Fit       0.003493
 4371 Fit       0.002623
 4372 Fit       0.001174
 4373 Fit       0.000689
 4374 Fit       0.002131
 4375 Fit       0.003661
 4376 Fit       0.004409
 4377 Fit       0.004607
 4378 Fit       0.004453
 4379 Fit       0.003982
 4380 Fit       0.003098
 4381 Fit       0.001760
 4382 Fit       0.000125
 4383 Fit      -0.001273
 4384 Fit      -0.001422
 4385 Fit       0.000057
 4386 Fit       0.002565
 4387 Fit       0.004206
 4388 Fit       0.005059
 4389 Fit       0.005401
 4390 Fit       0.005462
 4391 Fit       0.005379
 4392 Fit       0.005208
 4393 Fit       0.004946
 4394 Fit       0.004493
 4395 Fit       0.003701
 4396 Fit       0.002535
 4397 Fit       0.001046
 4398 Fit      -0.000783
 4399 Fit      -0.002807
 4400 Fit      -0.004325
 4401 Fit      -0.004364
 4402 Fit      -0.002617
 4403 Fit       0.000091
 4404 Fit       0.003615
 4405 Fit       0.005307
 4406 Fit       0.006084
 4407 Fit       0.006328
 4408 Fit       0.006313
 4409 Fit       0.006190
 4410 Fit       0.006032
 4411 Fit       0.005878
 4412 Fit       0.005750
 4413 Fit       0.005647
 4414 Fit      -0.003166
 4415 Fit       0.000709
 4416 Fit       0.005655
 4417 Fit       0.007202
 4418 Fit       0.007669
 4419 Fit       0.007605
 4420 Fit       0.007338
 4421 Fit       0.007028
 4422 Fit       0.006739
 4423 Fit       0.006494
 4424 Fit       0.006307
 4425 Fit       0.006204
 4426 Fit       0.010211
 4427 Fit       0.010012
 4428 Fit       0.009390
 4429 Fit       0.008694
 4430 Fit       0.008068
 4431 Fit       0.007550
 4432 Fit       0.007140
 4433 Fit       0.006823
 4434 Fit       0.006590
 4435 Fit       0.006460
 4436 Fit       0.013232
 4437 Fit       0.011620
 4438 Fit       0.010239
 4439 Fit       0.009147
 4440 Fit       0.008316
 4441 Fit       0.007694
 4442 Fit       0.007230
 4443 Fit       0.006885
 4444 Fit       0.006641
 4445 Fit       0.006521
 4446 Fit       0.014409
 4447 Fit       0.012106
 4448 Fit       0.010417
 4449 Fit       0.009194
 4450 Fit       0.008311
 4451 Fit       0.007670
 4452 Fit       0.007200
 4453 Fit       0.006846
 4454 Fit       0.006576
 4455 Fit       0.013969
 4456 Fit       0.011615
 4457 Fit       0.009978
 4458 Fit       0.008834
 4459 Fit       0.008027
 4460 Fit       0.007448
 4461 Fit       0.007013
 4462 Fit       0.006653
 4463 Fit       0.006307
 4464 Fit       0.008961
 4465 Fit       0.008087
 4466 Fit       0.007477
 4467 Fit       0.007016
 4468 Fit       0.002329
 4469 Fit       0.005322
 4470 Fit       0.006300
 4471 Fit       0.005213
 4472 Fit       0.008022
 4473 Fit       0.009650
 4474 Fit       0.010189
 4475 Fit       0.001145
 4476 Fit       0.007697
 4477 Fit       0.010322
 4478 Fit       0.012080
 4479 Fit       0.013046
 4480 Fit       0.013295
 4481 Fit       0.012916
 4482 Fit      -0.000496
 4483 Fit       0.004121
 4484 Fit       0.009744
 4485 Fit       0.012226
 4486 Fit       0.013998
 4487 Fit       0.015123
 4488 Fit       0.015661
 4489 Fit       0.015667
 4490 Fit       0.015216
 4491 Fit       0.002328
 4492 Fit       0.006475
 4493 Fit       0.011339
 4494 Fit       0.013653
 4495 Fit       0.015381
 4496 Fit       0.016577
 4497 Fit       0.017283
 4498 Fit       0.017541
 4499 Fit       0.017389
 4500 Fit       0.016873
 4501 Fit       0.000180
 4502 Fit       0.004689
 4503 Fit       0.008376
 4504 Fit       0.012477
 4505 Fit       0.014734
 4506 Fit       0.016448
 4507 Fit       0.017667
 4508 Fit       0.018433
 4509 Fit       0.018779
 4510 Fit       0.018737
 4511 Fit       0.018328
 4512 Fit       0.001783
 4513 Fit       0.006084
 4514 Fit       0.009618
 4515 Fit       0.013158
 4516 Fit       0.015336
 4517 Fit       0.017017
 4518 Fit       0.018243
 4519 Fit       0.019052
 4520 Fit       0.019474
 4521 Fit       0.019534
 4522 Fit       0.019249
 4523 Fit      -0.001800
 4524 Fit       0.003047
 4525 Fit       0.007088
 4526 Fit       0.010431
 4527 Fit       0.013385
 4528 Fit       0.015520
 4529 Fit       0.017180
 4530 Fit       0.018406
 4531 Fit       0.019232
 4532 Fit       0.019687
 4533 Fit       0.019793
 4534 Fit       0.019568
 4535 Fit       0.019010
 4536 Fit      -0.001098
 4537 Fit       0.003574
 4538 Fit       0.007482
 4539 Fit       0.010726
 4540 Fit       0.013157
 4541 Fit       0.015335
 4542 Fit       0.017016
 4543 Fit       0.018242
 4544 Fit       0.019051
 4545 Fit       0.019473
 4546 Fit       0.019533
 4547 Fit       0.019248
 4548 Fit      -0.001802
 4549 Fit       0.003046
 4550 Fit       0.007087
 4551 Fit       0.010430
 4552 Fit       0.012475
 4553 Fit       0.014732
 4554 Fit       0.016446
 4555 Fit       0.017666
 4556 Fit       0.018431
 4557 Fit       0.018778
 4558 Fit       0.018735
 4559 Fit       0.018327
 4560 Fit       0.001780
 4561 Fit       0.006082
 4562 Fit       0.009616
 4563 Fit       0.011336
 4564 Fit       0.013650
 4565 Fit       0.015379
 4566 Fit       0.016574
 4567 Fit       0.017281
 4568 Fit       0.017539
 4569 Fit       0.017386
 4570 Fit       0.016870
 4571 Fit       0.000176
 4572 Fit       0.004686
 4573 Fit       0.008373
 4574 Fit       0.009740
 4575 Fit       0.012222
 4576 Fit       0.013994
 4577 Fit       0.015120
 4578 Fit       0.015657
 4579 Fit       0.015663
 4580 Fit       0.015212
 4581 Fit       0.002324
 4582 Fit       0.006471
 4583 Fit       0.007692
 4584 Fit       0.010317
 4585 Fit       0.012075
 4586 Fit       0.013041
 4587 Fit       0.013290
 4588 Fit       0.012911
 4589 Fit      -0.000503
 4590 Fit       0.004115
 4591 Fit       0.005207
 4592 Fit       0.008016
 4593 Fit       0.009643
 4594 Fit       0.010183
 4595 Fit       0.001138
 4596 Fit       0.002321
 4597 Fit       0.005314
 4598 Fit       0.006292
 -----------------------------------------------------------------
 Leave Link  602 at Thu Nov  2 13:04:02 2023, MaxMem=   134217728 cpu:               0.2 elap:               0.2

 Test job not archived.
 1\1\GINC-LAC-209\FOpt\RHF\6-31G(d)\C4H10O1\RAHNAMOU\02-Nov-2023\0\\#HF
 /6-31G* SCF=tight Pop=MK iop(6/33=2) iop(6/42=6) opt\\mobley_1019269\\
 0,1\C,0.3982243542,-1.0105884753,-0.0887332944\C,-0.5789125712,-2.0183
 667456,0.5150213624\C,-1.9425800861,-2.0068529688,-0.1774029637\C,-2.9
 180021897,-3.0063696719,0.4186872451\O,-4.1288866646,-2.9124623553,-0.
 2869880721\H,1.3567842021,-1.0399112597,0.4199543972\H,0.5740394647,-1
 .2181032091,-1.1403090179\H,0.0126368358,0.0019265752,-0.0122432282\H,
 -0.1480171177,-3.0158006811,0.4547239163\H,-0.706292009,-1.8040441641,
 1.5742894492\H,-2.3853314051,-1.0165269842,-0.1140804497\H,-1.82659514
 05,-2.2299948501,-1.2345384583\H,-2.510314387,-4.0138088227,0.34693972
 06\H,-3.0730457827,-2.7917592172,1.4751862477\H,-4.7537075033,-3.52833
 71702,0.068493146\\Version=ES64L-G16RevC.01\State=1-A\HF=-232.1450911\
 RMSD=3.900e-09\RMSF=6.999e-05\Dipole=0.1202383,-0.4141334,0.5085462\Qu
 adrupole=-0.1026957,1.1373694,-1.0346737,2.3436244,-2.3674336,-0.54727
 12\PG=C01 [X(C4H10O1)]\\@


 THE ATTENTION SPAN OF A COMPUTER IS AS LONG
 AS ITS EXTENSION CORD.
 Job cpu time:       0 days  0 hours  0 minutes 16.2 seconds.
 Elapsed time:       0 days  0 hours  0 minutes 16.0 seconds.
 File lengths (MBytes):  RWF=    272 Int=      0 D2E=      0 Chk=     32 Scr=     32
 Normal termination of Gaussian 16 at Thu Nov  2 13:04:02 2023.
