 Entering Gaussian System, Link 0=/opt/software/Gaussian/g16-AVX2-C.01/g16/g16
 Input=mobley_1231151.com
 Output=mobley_1231151.log
 Initial command:
 /opt/software/Gaussian/g16-AVX2-C.01/g16/l1.exe "/mnt/gs21/scratch/rahnamou/Gau-25801.inp" -scrdir="/mnt/gs21/scratch/rahnamou/"
 Entering Link 1 = /opt/software/Gaussian/g16-AVX2-C.01/g16/l1.exe PID=     25819.
  
 Copyright (c) 1988-2019, Gaussian, Inc.  All Rights Reserved.
  
 This is part of the Gaussian(R) 16 program.  It is based on
 the Gaussian(R) 09 system (copyright 2009, Gaussian, Inc.),
 the Gaussian(R) 03 system (copyright 2003, Gaussian, Inc.),
 the Gaussian(R) 98 system (copyright 1998, Gaussian, Inc.),
 the Gaussian(R) 94 system (copyright 1995, Gaussian, Inc.),
 the Gaussian 92(TM) system (copyright 1992, Gaussian, Inc.),
 the Gaussian 90(TM) system (copyright 1990, Gaussian, Inc.),
 the Gaussian 88(TM) system (copyright 1988, Gaussian, Inc.),
 the Gaussian 86(TM) system (copyright 1986, Carnegie Mellon
 University), and the Gaussian 82(TM) system (copyright 1983,
 Carnegie Mellon University). Gaussian is a federally registered
 trademark of Gaussian, Inc.
  
 This software contains proprietary and confidential information,
 including trade secrets, belonging to Gaussian, Inc.
  
 This software is provided under written license and may be
 used, copied, transmitted, or stored only in accord with that
 written license.
  
 The following legend is applicable only to US Government
 contracts under FAR:
  
                    RESTRICTED RIGHTS LEGEND
  
 Use, reproduction and disclosure by the US Government is
 subject to restrictions as set forth in subparagraphs (a)
 and (c) of the Commercial Computer Software - Restricted
 Rights clause in FAR 52.227-19.
  
 Gaussian, Inc.
 340 Quinnipiac St., Bldg. 40, Wallingford CT 06492
  
  
 ---------------------------------------------------------------
 Warning -- This program may not be used in any manner that
 competes with the business of Gaussian, Inc. or will provide
 assistance to any competitor of Gaussian, Inc.  The licensee
 of this program is prohibited from giving any competitor of
 Gaussian, Inc. access to this program.  By using this program,
 the user acknowledges that Gaussian, Inc. is engaged in the
 business of creating and licensing software in the field of
 computational chemistry and represents and warrants to the
 licensee that it is not a competitor of Gaussian, Inc. and that
 it will not use this program in any manner prohibited above.
 ---------------------------------------------------------------
  

 Cite this work as:
 Gaussian 16, Revision C.01,
 M. J. Frisch, G. W. Trucks, H. B. Schlegel, G. E. Scuseria, 
 M. A. Robb, J. R. Cheeseman, G. Scalmani, V. Barone, 
 G. A. Petersson, H. Nakatsuji, X. Li, M. Caricato, A. V. Marenich, 
 J. Bloino, B. G. Janesko, R. Gomperts, B. Mennucci, H. P. Hratchian, 
 J. V. Ortiz, A. F. Izmaylov, J. L. Sonnenberg, D. Williams-Young, 
 F. Ding, F. Lipparini, F. Egidi, J. Goings, B. Peng, A. Petrone, 
 T. Henderson, D. Ranasinghe, V. G. Zakrzewski, J. Gao, N. Rega, 
 G. Zheng, W. Liang, M. Hada, M. Ehara, K. Toyota, R. Fukuda, 
 J. Hasegawa, M. Ishida, T. Nakajima, Y. Honda, O. Kitao, H. Nakai, 
 T. Vreven, K. Throssell, J. A. Montgomery, Jr., J. E. Peralta, 
 F. Ogliaro, M. J. Bearpark, J. J. Heyd, E. N. Brothers, K. N. Kudin, 
 V. N. Staroverov, T. A. Keith, R. Kobayashi, J. Normand, 
 K. Raghavachari, A. P. Rendell, J. C. Burant, S. S. Iyengar, 
 J. Tomasi, M. Cossi, J. M. Millam, M. Klene, C. Adamo, R. Cammi, 
 J. W. Ochterski, R. L. Martin, K. Morokuma, O. Farkas, 
 J. B. Foresman, and D. J. Fox, Gaussian, Inc., Wallingford CT, 2019.
 
 ******************************************
 Gaussian 16:  ES64L-G16RevC.01  3-Jul-2019
                 2-Nov-2023 
 ******************************************
 %chk=mobley_1231151.chk
 %mem=1GB
 %NProcShared=1
 Will use up to    1 processors via shared memory.
 -------------------------------------------------------
 #HF/6-31G* SCF=tight Pop=MK iop(6/33=2) iop(6/42=6) opt
 -------------------------------------------------------
 1/18=20,19=15,38=1/1,3;
 2/9=110,12=2,17=6,18=5,40=1/2;
 3/5=1,6=6,7=1,11=9,25=1,30=1,71=1/1,2,3;
 4//1;
 5/5=2,32=2,38=5/2;
 6/7=2,8=2,9=2,10=2,15=8,20=1,28=1,33=2,42=6/1,2;
 7//1,2,3,16;
 1/18=20,19=15/3(2);
 2/9=110/2;
 99//99;
 2/9=110/2;
 3/5=1,6=6,7=1,11=9,25=1,30=1,71=1/1,2,3;
 4/5=5,16=3,69=1/1;
 5/5=2,32=2,38=5/2;
 7//1,2,3,16;
 1/18=20,19=15/3(-5);
 2/9=110/2;
 6/7=2,8=2,9=2,10=2,15=8,19=2,20=1,28=1,33=2,42=6/1,2;
 99/9=1/99;
 --------------
 mobley_1231151
 --------------
 Symbolic Z-matrix:
 Charge =  0 Multiplicity = 1
 C                     0.865    -0.543     0.397 
 C                     1.006    -0.302     1.893 
 C                     1.198     1.174     2.208 
 CL                    2.397    -1.233     2.519 
 H                     0.727    -1.608     0.182 
 H                    -0.007    -0.01      0.002 
 H                     1.747    -0.196    -0.152 
 H                     0.116    -0.675     2.41 
 H                     1.298     1.335     3.287 
 H                     0.336     1.756     1.865 
 H                     2.091     1.578     1.72 
 

 GradGradGradGradGradGradGradGradGradGradGradGradGradGradGradGradGradGrad
 Berny optimization.
 Initialization pass.
                           ----------------------------
                           !    Initial Parameters    !
                           ! (Angstroms and Degrees)  !
 --------------------------                            --------------------------
 ! Name  Definition              Value          Derivative Info.                !
 --------------------------------------------------------------------------------
 ! R1    R(1,2)                  1.5218         estimate D2E/DX2                !
 ! R2    R(1,5)                  1.0952         estimate D2E/DX2                !
 ! R3    R(1,6)                  1.0957         estimate D2E/DX2                !
 ! R4    R(1,7)                  1.0953         estimate D2E/DX2                !
 ! R5    R(2,3)                  1.5214         estimate D2E/DX2                !
 ! R6    R(2,4)                  1.787          estimate D2E/DX2                !
 ! R7    R(2,8)                  1.0948         estimate D2E/DX2                !
 ! R8    R(3,9)                  1.0955         estimate D2E/DX2                !
 ! R9    R(3,10)                 1.0952         estimate D2E/DX2                !
 ! R10   R(3,11)                 1.0949         estimate D2E/DX2                !
 ! A1    A(2,1,5)              111.0169         estimate D2E/DX2                !
 ! A2    A(2,1,6)              110.554          estimate D2E/DX2                !
 ! A3    A(2,1,7)              111.5885         estimate D2E/DX2                !
 ! A4    A(5,1,6)              107.577          estimate D2E/DX2                !
 ! A5    A(5,1,7)              108.1273         estimate D2E/DX2                !
 ! A6    A(6,1,7)              107.8215         estimate D2E/DX2                !
 ! A7    A(1,2,3)              111.6453         estimate D2E/DX2                !
 ! A8    A(1,2,4)              109.5099         estimate D2E/DX2                !
 ! A9    A(1,2,8)              109.5696         estimate D2E/DX2                !
 ! A10   A(3,2,4)              109.5523         estimate D2E/DX2                !
 ! A11   A(3,2,8)              109.5945         estimate D2E/DX2                !
 ! A12   A(4,2,8)              106.8497         estimate D2E/DX2                !
 ! A13   A(2,3,9)              110.9786         estimate D2E/DX2                !
 ! A14   A(2,3,10)             110.5721         estimate D2E/DX2                !
 ! A15   A(2,3,11)             111.6305         estimate D2E/DX2                !
 ! A16   A(9,3,10)             107.5907         estimate D2E/DX2                !
 ! A17   A(9,3,11)             108.0777         estimate D2E/DX2                !
 ! A18   A(10,3,11)            107.8347         estimate D2E/DX2                !
 ! D1    D(5,1,2,3)           -179.978          estimate D2E/DX2                !
 ! D2    D(5,1,2,4)             58.5156         estimate D2E/DX2                !
 ! D3    D(5,1,2,8)            -58.3774         estimate D2E/DX2                !
 ! D4    D(6,1,2,3)            -60.6661         estimate D2E/DX2                !
 ! D5    D(6,1,2,4)            177.8275         estimate D2E/DX2                !
 ! D6    D(6,1,2,8)             60.9346         estimate D2E/DX2                !
 ! D7    D(7,1,2,3)             59.3265         estimate D2E/DX2                !
 ! D8    D(7,1,2,4)            -62.1799         estimate D2E/DX2                !
 ! D9    D(7,1,2,8)           -179.0728         estimate D2E/DX2                !
 ! D10   D(1,2,3,9)            179.9869         estimate D2E/DX2                !
 ! D11   D(1,2,3,10)            60.6707         estimate D2E/DX2                !
 ! D12   D(1,2,3,11)           -59.3786         estimate D2E/DX2                !
 ! D13   D(4,2,3,9)            -58.5313         estimate D2E/DX2                !
 ! D14   D(4,2,3,10)          -177.8474         estimate D2E/DX2                !
 ! D15   D(4,2,3,11)            62.1033         estimate D2E/DX2                !
 ! D16   D(8,2,3,9)             58.4006         estimate D2E/DX2                !
 ! D17   D(8,2,3,10)           -60.9155         estimate D2E/DX2                !
 ! D18   D(8,2,3,11)           179.0352         estimate D2E/DX2                !
 --------------------------------------------------------------------------------
 Trust Radius=3.00D-01 FncErr=1.00D-07 GrdErr=1.00D-07 EigMax=2.50D+02 EigMin=1.00D-04
 Number of steps in this run=     56 maximum allowed number of steps=    100.
 GradGradGradGradGradGradGradGradGradGradGradGradGradGradGradGradGradGrad

                          Input orientation:                          
 ---------------------------------------------------------------------
 Center     Atomic      Atomic             Coordinates (Angstroms)
 Number     Number       Type             X           Y           Z
 ---------------------------------------------------------------------
      1          6           0        0.865000   -0.543000    0.397000
      2          6           0        1.006000   -0.302000    1.893000
      3          6           0        1.198000    1.174000    2.208000
      4         17           0        2.397000   -1.233000    2.519000
      5          1           0        0.727000   -1.608000    0.182000
      6          1           0       -0.007000   -0.010000    0.002000
      7          1           0        1.747000   -0.196000   -0.152000
      8          1           0        0.116000   -0.675000    2.410000
      9          1           0        1.298000    1.335000    3.287000
     10          1           0        0.336000    1.756000    1.865000
     11          1           0        2.091000    1.578000    1.720000
 ---------------------------------------------------------------------
                    Distance matrix (angstroms):
                    1          2          3          4          5
     1  C    0.000000
     2  C    1.521834   0.000000
     3  C    2.517677   1.521402   0.000000
     4  Cl   2.706660   1.787042   2.707023   0.000000
     5  H    1.095214   2.170483   3.473621   2.896739   0.000000
     6  H    1.095672   2.165021   2.778546   3.689205   1.767699
     7  H    1.095324   2.177692   2.783505   2.938045   1.773612
     8  H    2.151882   1.094768   2.151820   2.350788   2.491545
     9  H    3.473683   2.169855   1.095519   2.896938   4.316053
    10  H    2.778537   2.164497   1.095179   3.689113   3.781781
    11  H    2.784250   2.177511   1.094901   2.938326   3.791640
                    6          7          8          9         10
     6  H    0.000000
     7  H    1.770545   0.000000
     8  H    2.501163   3.074646   0.000000
     9  H    3.781967   3.791079   2.491255   0.000000
    10  H    2.589821   3.141578   2.501037   1.767702   0.000000
    11  H    3.142431   2.601883   3.074530   1.772960   1.769953
                   11
    11  H    0.000000
 Stoichiometry    C3H7Cl
 Framework group  C1[X(C3H7Cl)]
 Deg. of freedom    27
 Full point group                 C1      NOp   1
 Largest Abelian subgroup         C1      NOp   1
 Largest concise Abelian subgroup C1      NOp   1
                         Standard orientation:                         
 ---------------------------------------------------------------------
 Center     Atomic      Atomic             Coordinates (Angstroms)
 Number     Number       Type             X           Y           Z
 ---------------------------------------------------------------------
      1          6           0        1.054892    1.259173   -0.120205
      2          6           0        0.384430   -0.000209    0.409338
      3          6           0        1.055900   -1.258505   -0.120271
      4         17           0       -1.340135   -0.000237   -0.059057
      5          1           0        0.563995    2.158177    0.267487
      6          1           0        2.104999    1.295554    0.190359
      7          1           0        1.027278    1.300790   -1.214389
      8          1           0        0.416041   -0.000018    1.503650
      9          1           0        0.565153   -2.157876    0.267621
     10          1           0        2.105585   -1.294267    0.190050
     11          1           0        1.027916   -1.301093   -1.213986
 ---------------------------------------------------------------------
 Rotational constants (GHZ):           8.1315835           4.5907727           3.2322208
 Standard basis: 6-31G(d) (6D, 7F)
 There are    78 symmetry adapted cartesian basis functions of A   symmetry.
 There are    78 symmetry adapted basis functions of A   symmetry.
    78 basis functions,   164 primitive gaussians,    78 cartesian basis functions
    21 alpha electrons       21 beta electrons
       nuclear repulsion energy       166.5558456978 Hartrees.
 NAtoms=   11 NActive=   11 NUniq=   11 SFac= 1.00D+00 NAtFMM=   60 NAOKFM=F Big=F
 Integral buffers will be    131072 words long.
 Raffenetti 1 integral format.
 Two-electron integral symmetry is turned on.
 One-electron integrals computed using PRISM.
 NBasis=    78 RedAO= T EigKep=  5.81D-03  NBF=    78
 NBsUse=    78 1.00D-06 EigRej= -1.00D+00 NBFU=    78
 ExpMin= 1.43D-01 ExpMax= 2.52D+04 ExpMxC= 3.78D+03 IAcc=3 IRadAn=         5 AccDes= 0.00D+00
 Harris functional with IExCor=  205 and IRadAn=       5 diagonalized for initial guess.
 HarFok:  IExCor=  205 AccDes= 0.00D+00 IRadAn=         5 IDoV= 1 UseB2=F ITyADJ=14
 ICtDFT=  3500011 ScaDFX=  1.000000  1.000000  1.000000  1.000000
 FoFCou: FMM=F IPFlag=           0 FMFlag=      100000 FMFlg1=           0
         NFxFlg=           0 DoJE=T BraDBF=F KetDBF=T FulRan=T
         wScrn=  0.000000 ICntrl=       500 IOpCl=  0 I1Cent=   200000004 NGrid=           0
         NMat0=    1 NMatS0=      1 NMatT0=    0 NMatD0=    1 NMtDS0=    0 NMtDT0=    0
 Petite list used in FoFCou.
 Keep R1 ints in memory in canonical form, NReq=5613743.
 Requested convergence on RMS density matrix=1.00D-08 within 128 cycles.
 Requested convergence on MAX density matrix=1.00D-06.
 Requested convergence on             energy=1.00D-06.
 No special actions if energy rises.
 SCF Done:  E(RHF) =  -577.168131212     A.U. after   12 cycles
            NFock= 12  Conv=0.43D-08     -V/T= 2.0005
 SCF density gives NOpUse=  1 NOpAll=  1.

 **********************************************************************

            Population analysis using the SCF Density.

 **********************************************************************

 Orbital symmetries:
 BldTbl:  Degeneracy threshold= 1.00D-02
       Occupied  (A) (A) (A) (A) (A) (A) (A) (A) (A) (A) (A) (A)
                 (A) (A) (A) (A) (A) (A) (A) (A) (A)
       Virtual   (A) (A) (A) (A) (A) (A) (A) (A) (A) (A) (A) (A)
                 (A) (A) (A) (A) (A) (A) (A) (A) (A) (A) (A) (A)
                 (A) (A) (A) (A) (A) (A) (A) (A) (A) (A) (A) (A)
                 (A) (A) (A) (A) (A) (A) (A) (A) (A) (A) (A) (A)
                 (A) (A) (A) (A) (A) (A) (A) (A) (A)
 The electronic state is 1-A.
 Alpha  occ. eigenvalues -- -104.80283 -11.29923 -11.23232 -11.23224 -10.53721
 Alpha  occ. eigenvalues --   -8.00647  -8.00332  -8.00330  -1.15053  -1.01583
 Alpha  occ. eigenvalues --   -0.95008  -0.79964  -0.64957  -0.61238  -0.59179
 Alpha  occ. eigenvalues --   -0.55294  -0.51902  -0.50740  -0.49437  -0.42709
 Alpha  occ. eigenvalues --   -0.42640
 Alpha virt. eigenvalues --    0.20045   0.23332   0.27514   0.28888   0.29605
 Alpha virt. eigenvalues --    0.31666   0.33390   0.33863   0.36663   0.40296
 Alpha virt. eigenvalues --    0.57001   0.63667   0.66355   0.67098   0.69677
 Alpha virt. eigenvalues --    0.70594   0.75608   0.79158   0.84103   0.94054
 Alpha virt. eigenvalues --    0.94449   0.96983   0.99717   1.12250   1.13830
 Alpha virt. eigenvalues --    1.14896   1.15923   1.17639   1.18051   1.19176
 Alpha virt. eigenvalues --    1.20731   1.24118   1.25141   1.31289   1.33495
 Alpha virt. eigenvalues --    1.45156   1.64155   1.73452   1.79595   1.82109
 Alpha virt. eigenvalues --    2.04544   2.19223   2.21360   2.27652   2.33068
 Alpha virt. eigenvalues --    2.39988   2.55146   2.57479   2.58835   2.72684
 Alpha virt. eigenvalues --    2.74614   2.88813   3.00456   4.53223   4.68732
 Alpha virt. eigenvalues --    4.73049   4.88538
          Condensed to atoms (all electrons):
               1          2          3          4          5          6
     1  C    5.170201   0.319195  -0.062480  -0.075192   0.395408   0.380545
     2  C    0.319195   5.183135   0.319167   0.226951  -0.037542  -0.032044
     3  C   -0.062480   0.319167   5.170050  -0.075096   0.004569  -0.003275
     4  Cl  -0.075192   0.226951  -0.075096  17.069264  -0.001795   0.004758
     5  H    0.395408  -0.037542   0.004569  -0.001795   0.506548  -0.025747
     6  H    0.380545  -0.032044  -0.003275   0.004758  -0.025747   0.533033
     7  H    0.391254  -0.037993  -0.003620  -0.000680  -0.023891  -0.026121
     8  H   -0.042890   0.399586  -0.042878  -0.048392  -0.002679  -0.001497
     9  H    0.004577  -0.037620   0.395418  -0.001790  -0.000096  -0.000067
    10  H   -0.003277  -0.032030   0.380605   0.004752  -0.000066   0.001133
    11  H   -0.003627  -0.037940   0.391300  -0.000676  -0.000064   0.000194
               7          8          9         10         11
     1  C    0.391254  -0.042890   0.004577  -0.003277  -0.003627
     2  C   -0.037993   0.399586  -0.037620  -0.032030  -0.037940
     3  C   -0.003620  -0.042878   0.395418   0.380605   0.391300
     4  Cl  -0.000680  -0.048392  -0.001790   0.004752  -0.000676
     5  H   -0.023891  -0.002679  -0.000096  -0.000066  -0.000064
     6  H   -0.026121  -0.001497  -0.000067   0.001133   0.000194
     7  H    0.513796   0.003868  -0.000065   0.000194   0.002654
     8  H    0.003868   0.523035  -0.002693  -0.001496   0.003867
     9  H   -0.000065  -0.002693   0.506780  -0.025715  -0.023955
    10  H    0.000194  -0.001496  -0.025715   0.532738  -0.026116
    11  H    0.002654   0.003867  -0.023955  -0.026116   0.513637
 Mulliken charges:
               1
     1  C   -0.473715
     2  C   -0.232864
     3  C   -0.473760
     4  Cl  -0.102103
     5  H    0.185355
     6  H    0.169087
     7  H    0.180604
     8  H    0.212168
     9  H    0.185225
    10  H    0.169279
    11  H    0.180724
 Sum of Mulliken charges =  -0.00000
 Mulliken charges with hydrogens summed into heavy atoms:
               1
     1  C    0.061332
     2  C   -0.020696
     3  C    0.061467
     4  Cl  -0.102103
 DipInt: DoE/N= T F RetVal/Mat= T F Init=T NMatP=  1 IDeriv=0 Min/MaxMlt=  0  4
 Entering OneElI...
 OneElI was handed   134200377 working-precision words.
 Multipole integrals L=0 to 4 MinM= 0 MaxM= 0.
 Requested accuracy = 0.1000D-12
 ShPair: Thresh= 1.00D-13 NBox=     0 BxSize= 0.00D+00 RnKept= 8.16D+00
         NSMCal=                  496 NSMKep=                 494
 PrmmSu-InSpLW:  IPartL=    0 NPrtUS=    1 NPrtUL=    1 DoSpLW=F IThBeg=    0 IThEnd=    0 NThAct=    1.
 PrSmSu:  IncTry=   512 NBBP=            494 NTPThr=   100 NPartT=    1 Incr=           4 LDynOK=F GPUOK=F.
 PrsmSu:  NPrtUS=   1 ThrOK=F IAlg=2 LenDen=           0 ISkipM=0 DoSpLW=F IThBeg=    0 IThEnd=    0.
 Prism:   IPart=     0 DynPar=F LinDyn=F Incr=           4.
 PRISM was handed   134149166 working-precision words and   494 shell-pairs
 IPart=  0 NShTot=         494 NBatch=          36 AvBLen=        13.7
 PrsmSu-ThDecC:  IPartSL=    0    0 NPrtUSL=    1    1 IThBeg=    0 IThEnd=    0 CPU=   -1 GPU=   -1 NThAct=    1.
 PrSmSu:  NxtVal=              5.
 Electronic moments (au):
        -42.00000000          0.90777249          0.00000811          0.19255157
       -227.80182527       -149.77725016        -48.16182562         -0.00176025
          0.22256048          0.00148896         31.05385171         -0.18901982
         -1.33223279       -243.47004375          0.13844822         23.11491797
        -32.39624078         -0.00660311         22.93683749         -0.00887534
      -2191.88372057      -1623.52576897       -285.43307452          0.14966587
         -9.32246516         -0.12150493          0.01822228         24.79681479
          0.03595410       -774.86204155       -220.96812884       -198.25967270
         -0.06105497         49.03983158         -0.00126424
 Electronic spatial extent (au):  <R**2>=            425.7409
 DipInt: DoE/N= F T RetVal/Mat= T F Init=T NMatP=  1 IDeriv=0 Min/MaxMlt=  0  4
 Nuclear    moments (au):
         42.00000000          0.00000000          0.00000000         -0.00000000
        202.02021132        125.23273937         23.79440784          0.00000000
          0.00000000         -0.00000000        -35.11827414          0.19033394
          1.74709189        242.04002943         -0.14339056        -23.58281070
         31.67539658          0.00380397        -22.04308739          0.01139252
       1423.24980520       1082.21751782        122.97012224         -0.18469977
         25.23666404          0.10419179          0.01492634        -26.43520057
         -0.02434691        543.10841346         55.08408543         77.19333547
          0.07195350        -49.56387140         -0.00628648
 Total      moments (au):
         -0.00000000          0.90777249          0.00000811          0.19255157
        -25.78161395        -24.54451080        -24.36741778         -0.00176025
          0.22256048          0.00148896         -4.06442243          0.00131411
          0.41485909         -1.43001433         -0.00494233         -0.46789273
         -0.72084420         -0.00279914          0.89375011          0.00251718
       -768.63391537       -541.30825115       -162.46295229         -0.03503390
         15.91419887         -0.01731314          0.03314862         -1.63838578
          0.01160719       -231.75362808       -165.88404341       -121.06633723
          0.01089852         -0.52403982         -0.00755073
 Traceless Quadrup. (au):
         -0.88376644          0.35333671          0.53042973         -0.00176025
          0.22256048          0.00148896
 Charge=             -0.0000 electrons
 Dipole moment (field-independent basis, Debye):
    X=              2.3073    Y=              0.0000    Z=              0.4894  Tot=              2.3587
 Quadrupole moment (field-independent basis, Debye-Ang):
   XX=            -34.6772   YY=            -33.0132   ZZ=            -32.7750
   XY=             -0.0024   XZ=              0.2994   YZ=              0.0020
 Traceless Quadrupole moment (field-independent basis, Debye-Ang):
   XX=             -1.1887   YY=              0.4752   ZZ=              0.7134
   XY=             -0.0024   XZ=              0.2994   YZ=              0.0020
 Octapole moment (field-independent basis, Debye-Ang**2):
  XXX=             -2.8929  YYY=              0.0009  ZZZ=              0.2953  XYY=             -1.0178
  XXY=             -0.0035  XXZ=             -0.3330  XZZ=             -0.5131  YZZ=             -0.0020
  YYZ=              0.6361  XYZ=              0.0018
 Hexadecapole moment (field-independent basis, Debye-Ang**3):
 XXXX=           -289.5044 YYYY=           -203.8826 ZZZZ=            -61.1913 XXXY=             -0.0132
 XXXZ=              5.9941 YYYX=             -0.0065 YYYZ=              0.0125 ZZZX=             -0.6171
 ZZZY=              0.0044 XXYY=            -87.2895 XXZZ=            -62.4799 YYZZ=            -45.5994
 XXYZ=              0.0041 YYXZ=             -0.1974 ZZXY=             -0.0028
 N-N= 1.665558456978D+02 E-N=-1.700676770272D+03  KE= 5.768567471797D+02
 Entering OneElI...
 OneElI was handed   134203094 working-precision words.
 Calculate electrostatic properties
    NBasis =    78  MinDer = 0  MaxDer = 0
    NGrid  =    11  NMatD  =   1
 Requested accuracy = 0.1000D-12
 ShPair: Thresh= 1.00D-13 NBox=     0 BxSize= 0.00D+00 RnKept= 8.16D+00
         NSMCal=                  496 NSMKep=                 488
 PrmmSu-InSpLW:  IPartL=    0 NPrtUS=    1 NPrtUL=    1 DoSpLW=F IThBeg=    0 IThEnd=    0 NThAct=    1.
 PrSmSu:  IncTry=   512 NBBP=           5368 NTPThr=   100 NPartT=    1 Incr=          53 LDynOK=F GPUOK=F.
 PrsmSu:  NPrtUS=   1 ThrOK=F IAlg=2 LenDen=           0 ISkipM=0 DoSpLW=F IThBeg=    0 IThEnd=    0.
 Prism:   IPart=     0 DynPar=F LinDyn=F Incr=          53.
 PRISM was handed   134154005 working-precision words and   488 shell-pairs
 IPart=  0 NShTot=        5368 NBatch=         488 AvBLen=        11.0
 PrsmSu-ThDecC:  IPartSL=    0    0 NPrtUSL=    1    1 IThBeg=    0 IThEnd=    0 CPU=   -1 GPU=   -1 NThAct=    1.
 PrSmSu:  NxtVal=             54.
 --------------------------------------------------------
       Center         ----      EFG at Nuclei      ----
                      3XX-RR        3YY-RR        3ZZ-RR
 --------------------------------------------------------
     1   Atom        0.002977     -0.026066      0.023089
     2   Atom       -0.403499      0.218096      0.185402
     3   Atom        0.003096     -0.026402      0.023307
     4   Atom       -2.946569      1.686399      1.260170
     5   Atom        0.059299     -0.152660      0.093360
     6   Atom       -0.258155      0.143417      0.114738
     7   Atom        0.150544      0.142451     -0.292996
     8   Atom        0.136109      0.146911     -0.283020
     9   Atom        0.059337     -0.152502      0.093165
    10   Atom       -0.258920      0.143851      0.115070
    11   Atom        0.150878      0.142809     -0.293687
 --------------------------------------------------------
                        XY            XZ            YZ
 --------------------------------------------------------
     1   Atom       -0.040479      0.013378      0.031995
     2   Atom       -0.000316     -0.177096      0.000059
     3   Atom        0.040249      0.013604     -0.031800
     4   Atom        0.000622     -1.314549      0.000073
     5   Atom        0.159214      0.074734     -0.126743
     6   Atom       -0.013550     -0.122292      0.001699
     7   Atom       -0.004849     -0.010919      0.015428
     8   Atom        0.000007     -0.010644     -0.000060
     9   Atom       -0.158820      0.074582      0.126582
    10   Atom        0.013365     -0.122601     -0.001778
    11   Atom        0.004850     -0.011098     -0.015812
 --------------------------------------------------------


 ---------------------------------------------------------------------------------
              Nuclear Quadrupole Coupling Constant in Principal Axis System
 ---------------------------------------------------------------------------------

       Atom             a.u.   MegaHertz   Gauss  10(-4) cm-1        Axes

              Baa    -3.3236   -63.762   -22.752   -21.269  0.9613 -0.0001  0.2757
     4 Cl(35) Bbb     1.6372    31.409    11.207    10.477 -0.2757  0.0021  0.9612
              Bcc     1.6864    32.353    11.544    10.792  0.0007  1.0000 -0.0019
 

 ---------------------------------------------------------------------------------

 No NMR shielding tensors so no spin-rotation constants.
 Leave Link  601 at Thu Nov  2 13:05:11 2023, MaxMem=   134217728 cpu:               0.1 elap:               0.1
 FitSet:  NAtFit=    11 NAtPot=    11 NAtFrz=     0 MDM=    15 TotChg=   0.00000
 Merz-Kollman atomic radii used.
 Atom Element Radius
    1     6    1.50
    2     6    1.50
    3     6    1.50
    4    17    1.70
    5     1    1.20
    6     1    1.20
    7     1    1.20
    8     1    1.20
    9     1    1.20
   10     1    1.20
   11     1    1.20
 Generate VDW surfaces: Layer= 4 Dens= 6 Start= 1.400 Inc= 0.200

 **********************************************************************

            Electrostatic Properties Using The SCF Density.

 **********************************************************************

       Atomic Center    1 is at   1.054892  1.259173 -0.120205
       Atomic Center    2 is at   0.384430 -0.000209  0.409338
       Atomic Center    3 is at   1.055900 -1.258505 -0.120271
       Atomic Center    4 is at  -1.340135 -0.000237 -0.059057
       Atomic Center    5 is at   0.563995  2.158177  0.267487
       Atomic Center    6 is at   2.104999  1.295554  0.190359
       Atomic Center    7 is at   1.027278  1.300790 -1.214389
       Atomic Center    8 is at   0.416041 -0.000018  1.503650
       Atomic Center    9 is at   0.565153 -2.157876  0.267621
       Atomic Center   10 is at   2.105585 -1.294267  0.190050
       Atomic Center   11 is at   1.027916 -1.301093 -1.213986
      ESP Fit Center   12 is at   1.464582  1.259173  1.939444
      ESP Fit Center   13 is at   1.259737  1.613974  1.939444
      ESP Fit Center   14 is at   0.850048  1.613974  1.939444
      ESP Fit Center   15 is at   1.750861  1.660990  1.819942
      ESP Fit Center   16 is at   1.456710  1.955141  1.819942
      ESP Fit Center   17 is at   1.574934  2.303557  1.625882
      ESP Fit Center   18 is at   2.144373  3.007082  0.289485
      ESP Fit Center   19 is at   2.221590  3.005259 -0.120205
      ESP Fit Center   20 is at   1.858528  3.199320 -0.120205
      ESP Fit Center   21 is at   2.144373  3.007082 -0.529894
      ESP Fit Center   22 is at   1.770219  3.190613 -0.529894
      ESP Fit Center   23 is at   2.310917  2.737879 -0.923840
      ESP Fit Center   24 is at   1.963674  2.973316 -0.923840
      ESP Fit Center   25 is at   1.573937  3.128601 -0.923840
      ESP Fit Center   26 is at   1.159930  3.196474 -0.923840
      ESP Fit Center   27 is at   2.599430  0.085046 -0.923840
      ESP Fit Center   28 is at   2.600975  2.070619 -1.286902
      ESP Fit Center   29 is at   2.361857  2.417042 -1.286902
      ESP Fit Center   30 is at   2.046782  2.696173 -1.286902
      ESP Fit Center   31 is at   1.674063  2.891792 -1.286902
      ESP Fit Center   32 is at   1.265360  2.992528 -1.286902
      ESP Fit Center   33 is at   0.844425  2.992528 -1.286902
      ESP Fit Center   34 is at   0.435722  2.891792 -1.286902
      ESP Fit Center   35 is at   0.063002  2.696173 -1.286902
      ESP Fit Center   36 is at  -0.252072  2.417042 -1.286902
      ESP Fit Center   37 is at  -0.491190  2.070619 -1.286902
      ESP Fit Center   38 is at   2.361857  0.101303 -1.286902
      ESP Fit Center   39 is at   2.600975  0.447726 -1.286902
      ESP Fit Center   40 is at   2.130516 -0.000209  1.576035
      ESP Fit Center   41 is at   1.465590 -1.258505  1.939378
      ESP Fit Center   42 is at   0.851055 -1.613306  1.939378
      ESP Fit Center   43 is at   1.260745 -1.613306  1.939378
      ESP Fit Center   44 is at   1.457718 -1.954473  1.819876
      ESP Fit Center   45 is at   1.751869 -1.660322  1.819876
      ESP Fit Center   46 is at   1.575942 -2.302889  1.625815
      ESP Fit Center   47 is at   2.145380 -3.006414  0.289418
      ESP Fit Center   48 is at   1.859535 -3.198652 -0.120271
      ESP Fit Center   49 is at   2.222597 -3.004591 -0.120271
      ESP Fit Center   50 is at   1.771227 -3.189945 -0.529961
      ESP Fit Center   51 is at   2.145380 -3.006414 -0.529961
      ESP Fit Center   52 is at   2.600438 -0.084378 -0.923907
      ESP Fit Center   53 is at   1.160937 -3.195806 -0.923907
      ESP Fit Center   54 is at   1.574944 -3.127933 -0.923907
      ESP Fit Center   55 is at   1.964681 -2.972648 -0.923907
      ESP Fit Center   56 is at   2.311925 -2.737211 -0.923907
      ESP Fit Center   57 is at   2.601983 -0.447058 -1.286969
      ESP Fit Center   58 is at   2.362864 -0.100635 -1.286969
      ESP Fit Center   59 is at  -0.490183 -2.069951 -1.286969
      ESP Fit Center   60 is at  -0.251064 -2.416374 -1.286969
      ESP Fit Center   61 is at   0.064010 -2.695505 -1.286969
      ESP Fit Center   62 is at   0.436729 -2.891123 -1.286969
      ESP Fit Center   63 is at   0.845433 -2.991860 -1.286969
      ESP Fit Center   64 is at   1.266367 -2.991860 -1.286969
      ESP Fit Center   65 is at   1.675071 -2.891123 -1.286969
      ESP Fit Center   66 is at   2.047790 -2.695505 -1.286969
      ESP Fit Center   67 is at   2.362864 -2.416374 -1.286969
      ESP Fit Center   68 is at   2.601983 -2.069951 -1.286969
      ESP Fit Center   69 is at  -1.340135 -0.000237  2.320943
      ESP Fit Center   70 is at  -1.133494  0.357677  2.284786
      ESP Fit Center   71 is at  -1.546777  0.357677  2.284786
      ESP Fit Center   72 is at  -1.753418 -0.000237  2.284786
      ESP Fit Center   73 is at  -1.546777 -0.358150  2.284786
      ESP Fit Center   74 is at  -1.133494 -0.358150  2.284786
      ESP Fit Center   75 is at  -1.340135  0.813771  2.177412
      ESP Fit Center   76 is at  -1.747139  0.704715  2.177412
      ESP Fit Center   77 is at  -2.045087  0.406767  2.177412
      ESP Fit Center   78 is at  -2.154143 -0.000237  2.177412
      ESP Fit Center   79 is at  -2.045087 -0.407240  2.177412
      ESP Fit Center   80 is at  -1.747139 -0.705188  2.177412
      ESP Fit Center   81 is at  -1.340135 -0.814244  2.177412
      ESP Fit Center   82 is at  -1.133494  1.171685  2.002084
      ESP Fit Center   83 is at  -1.546777  1.171685  2.002084
      ESP Fit Center   84 is at  -1.935135  1.030334  2.002084
      ESP Fit Center   85 is at  -2.251728  0.764681  2.002084
      ESP Fit Center   86 is at  -2.458370  0.406767  2.002084
      ESP Fit Center   87 is at  -2.530135 -0.000237  2.002084
      ESP Fit Center   88 is at  -2.458370 -0.407240  2.002084
      ESP Fit Center   89 is at  -2.251728 -0.765154  2.002084
      ESP Fit Center   90 is at  -1.935135 -1.030807  2.002084
      ESP Fit Center   91 is at  -1.546777 -1.172158  2.002084
      ESP Fit Center   92 is at  -1.133494 -1.172158  2.002084
      ESP Fit Center   93 is at  -0.636312  1.358081  1.764129
      ESP Fit Center   94 is at  -1.028881  1.497600  1.764129
      ESP Fit Center   95 is at  -1.444535  1.526032  1.764129
      ESP Fit Center   96 is at  -1.852446  1.441267  1.764129
      ESP Fit Center   97 is at  -2.222361  1.249592  1.764129
      ESP Fit Center   98 is at  -2.526845  0.965224  1.764129
      ESP Fit Center   99 is at  -2.743317  0.609251  1.764129
      ESP Fit Center  100 is at  -2.855721  0.208076  1.764129
      ESP Fit Center  101 is at  -2.855721 -0.208549  1.764129
      ESP Fit Center  102 is at  -2.743317 -0.609724  1.764129
      ESP Fit Center  103 is at  -2.526845 -0.965697  1.764129
      ESP Fit Center  104 is at  -2.222361 -1.250065  1.764129
      ESP Fit Center  105 is at  -1.852446 -1.441740  1.764129
      ESP Fit Center  106 is at  -1.444535 -1.526505  1.764129
      ESP Fit Center  107 is at  -1.028881 -1.498073  1.764129
      ESP Fit Center  108 is at  -0.636312 -1.358554  1.764129
      ESP Fit Center  109 is at  -0.618008  1.673842  1.470778
      ESP Fit Center  110 is at  -1.023542  1.795251  1.470778
      ESP Fit Center  111 is at  -1.446144  1.819865  1.470778
      ESP Fit Center  112 is at  -1.863031  1.746356  1.470778
      ESP Fit Center  113 is at  -2.251728  1.578689  1.470778
      ESP Fit Center  114 is at  -2.591281  1.325901  1.470778
      ESP Fit Center  115 is at  -2.863385  1.001620  1.470778
      ESP Fit Center  116 is at  -3.053370  0.623330  1.470778
      ESP Fit Center  117 is at  -3.150993  0.211422  1.470778
      ESP Fit Center  118 is at  -3.150993 -0.211895  1.470778
      ESP Fit Center  119 is at  -3.053370 -0.623803  1.470778
      ESP Fit Center  120 is at  -2.863385 -1.002093  1.470778
      ESP Fit Center  121 is at  -2.591281 -1.326374  1.470778
      ESP Fit Center  122 is at  -2.251728 -1.579162  1.470778
      ESP Fit Center  123 is at  -1.863031 -1.746829  1.470778
      ESP Fit Center  124 is at  -1.446144 -1.820338  1.470778
      ESP Fit Center  125 is at  -1.023542 -1.795724  1.470778
      ESP Fit Center  126 is at  -0.618008 -1.674315  1.470778
      ESP Fit Center  127 is at  -1.028021  2.037136  1.130943
      ESP Fit Center  128 is at  -1.444530  2.058258  1.130943
      ESP Fit Center  129 is at  -1.856765  1.995106  1.130943
      ESP Fit Center  130 is at  -2.247850  1.850265  1.130943
      ESP Fit Center  131 is at  -2.601772  1.629663  1.130943
      ESP Fit Center  132 is at  -2.904042  1.342334  1.130943
      ESP Fit Center  133 is at  -3.142287  1.000039  1.130943
      ESP Fit Center  134 is at  -3.306750  0.616793  1.130943
      ESP Fit Center  135 is at  -3.390701  0.208286  1.130943
      ESP Fit Center  136 is at  -3.390701 -0.208759  1.130943
      ESP Fit Center  137 is at  -3.306750 -0.617266  1.130943
      ESP Fit Center  138 is at  -3.142287 -1.000512  1.130943
      ESP Fit Center  139 is at  -2.904042 -1.342807  1.130943
      ESP Fit Center  140 is at  -2.601772 -1.630136  1.130943
      ESP Fit Center  141 is at  -2.247850 -1.850738  1.130943
      ESP Fit Center  142 is at  -1.856765 -1.995579  1.130943
      ESP Fit Center  143 is at  -1.444530 -2.058732  1.130943
      ESP Fit Center  144 is at  -1.028021 -2.037609  1.130943
      ESP Fit Center  145 is at  -1.233720  2.233699  0.754951
      ESP Fit Center  146 is at  -1.658418  2.213468  0.754951
      ESP Fit Center  147 is at  -2.071613  2.113228  0.754951
      ESP Fit Center  148 is at  -2.458370  1.936602  0.754951
      ESP Fit Center  149 is at  -2.804711  1.689974  0.754951
      ESP Fit Center  150 is at  -3.098118  1.382257  0.754951
      ESP Fit Center  151 is at  -3.327988  1.024573  0.754951
      ESP Fit Center  152 is at  -3.486011  0.629849  0.754951
      ESP Fit Center  153 is at  -3.566477  0.212353  0.754951
      ESP Fit Center  154 is at  -3.566477 -0.212826  0.754951
      ESP Fit Center  155 is at  -3.486011 -0.630322  0.754951
      ESP Fit Center  156 is at  -3.327988 -1.025046  0.754951
      ESP Fit Center  157 is at  -3.098118 -1.382730  0.754951
      ESP Fit Center  158 is at  -2.804711 -1.690447  0.754951
      ESP Fit Center  159 is at  -2.458370 -1.937075  0.754951
      ESP Fit Center  160 is at  -2.071613 -2.113701  0.754951
      ESP Fit Center  161 is at  -1.658418 -2.213941  0.754951
      ESP Fit Center  162 is at  -1.233720 -2.234172  0.754951
      ESP Fit Center  163 is at  -1.445291  2.341246  0.354226
      ESP Fit Center  164 is at  -1.861689  2.284841  0.354226
      ESP Fit Center  165 is at  -2.261324  2.154992  0.354226
      ESP Fit Center  166 is at  -2.631351  1.955872  0.354226
      ESP Fit Center  167 is at  -2.959877  1.693881  0.354226
      ESP Fit Center  168 is at  -3.236344  1.377440  0.354226
      ESP Fit Center  169 is at  -3.451864  1.016719  0.354226
      ESP Fit Center  170 is at  -3.599512  0.623312  0.354226
      ESP Fit Center  171 is at  -3.674542  0.209864  0.354226
      ESP Fit Center  172 is at  -3.674542 -0.210337  0.354226
      ESP Fit Center  173 is at  -3.599512 -0.623785  0.354226
      ESP Fit Center  174 is at  -3.451864 -1.017192  0.354226
      ESP Fit Center  175 is at  -3.236344 -1.377913  0.354226
      ESP Fit Center  176 is at  -2.959877 -1.694354  0.354226
      ESP Fit Center  177 is at  -2.631351 -1.956345  0.354226
      ESP Fit Center  178 is at  -2.261324 -2.155465  0.354226
      ESP Fit Center  179 is at  -1.861689 -2.285314  0.354226
      ESP Fit Center  180 is at  -1.445291 -2.341719  0.354226
      ESP Fit Center  181 is at  -1.340135  2.379763 -0.059057
      ESP Fit Center  182 is at  -1.753418  2.343606 -0.059057
      ESP Fit Center  183 is at  -2.154143  2.236232 -0.059057
      ESP Fit Center  184 is at  -2.530135  2.060904 -0.059057
      ESP Fit Center  185 is at  -2.869970  1.822949 -0.059057
      ESP Fit Center  186 is at  -3.163321  1.529598 -0.059057
      ESP Fit Center  187 is at  -3.401276  1.189763 -0.059057
      ESP Fit Center  188 is at  -3.576604  0.813771 -0.059057
      ESP Fit Center  189 is at  -3.683978  0.413046 -0.059057
      ESP Fit Center  190 is at  -3.720135 -0.000237 -0.059057
      ESP Fit Center  191 is at  -3.683978 -0.413519 -0.059057
      ESP Fit Center  192 is at  -3.576604 -0.814244 -0.059057
      ESP Fit Center  193 is at  -3.401276 -1.190237 -0.059057
      ESP Fit Center  194 is at  -3.163321 -1.530071 -0.059057
      ESP Fit Center  195 is at  -2.869970 -1.823422 -0.059057
      ESP Fit Center  196 is at  -2.530135 -2.061377 -0.059057
      ESP Fit Center  197 is at  -2.154143 -2.236705 -0.059057
      ESP Fit Center  198 is at  -1.753418 -2.344079 -0.059057
      ESP Fit Center  199 is at  -1.340135 -2.380237 -0.059057
      ESP Fit Center  200 is at  -1.025514  2.322394 -0.472339
      ESP Fit Center  201 is at  -1.445291  2.341246 -0.472339
      ESP Fit Center  202 is at  -1.861689  2.284841 -0.472339
      ESP Fit Center  203 is at  -2.261324  2.154992 -0.472339
      ESP Fit Center  204 is at  -2.631351  1.955872 -0.472339
      ESP Fit Center  205 is at  -2.959877  1.693881 -0.472339
      ESP Fit Center  206 is at  -3.236344  1.377440 -0.472339
      ESP Fit Center  207 is at  -3.451864  1.016719 -0.472339
      ESP Fit Center  208 is at  -3.599512  0.623312 -0.472339
      ESP Fit Center  209 is at  -3.674542  0.209864 -0.472339
      ESP Fit Center  210 is at  -3.674542 -0.210337 -0.472339
      ESP Fit Center  211 is at  -3.599512 -0.623785 -0.472339
      ESP Fit Center  212 is at  -3.451864 -1.017192 -0.472339
      ESP Fit Center  213 is at  -3.236344 -1.377913 -0.472339
      ESP Fit Center  214 is at  -2.959877 -1.694354 -0.472339
      ESP Fit Center  215 is at  -2.631351 -1.956345 -0.472339
      ESP Fit Center  216 is at  -2.261324 -2.155465 -0.472339
      ESP Fit Center  217 is at  -1.861689 -2.285314 -0.472339
      ESP Fit Center  218 is at  -1.445291 -2.341719 -0.472339
      ESP Fit Center  219 is at  -1.025514 -2.322867 -0.472339
      ESP Fit Center  220 is at  -0.812868  2.173189 -0.873065
      ESP Fit Center  221 is at  -1.233720  2.233699 -0.873065
      ESP Fit Center  222 is at  -1.658418  2.213468 -0.873065
      ESP Fit Center  223 is at  -2.071613  2.113228 -0.873065
      ESP Fit Center  224 is at  -2.458370  1.936602 -0.873065
      ESP Fit Center  225 is at  -2.804711  1.689974 -0.873065
      ESP Fit Center  226 is at  -3.098118  1.382257 -0.873065
      ESP Fit Center  227 is at  -3.327988  1.024573 -0.873065
      ESP Fit Center  228 is at  -3.486011  0.629849 -0.873065
      ESP Fit Center  229 is at  -3.566477  0.212353 -0.873065
      ESP Fit Center  230 is at  -3.566477 -0.212826 -0.873065
      ESP Fit Center  231 is at  -3.486011 -0.630322 -0.873065
      ESP Fit Center  232 is at  -3.327988 -1.025046 -0.873065
      ESP Fit Center  233 is at  -3.098118 -1.382730 -0.873065
      ESP Fit Center  234 is at  -2.804711 -1.690447 -0.873065
      ESP Fit Center  235 is at  -2.458370 -1.937075 -0.873065
      ESP Fit Center  236 is at  -2.071613 -2.113701 -0.873065
      ESP Fit Center  237 is at  -1.658418 -2.213941 -0.873065
      ESP Fit Center  238 is at  -1.233720 -2.234172 -0.873065
      ESP Fit Center  239 is at  -0.812868 -2.173662 -0.873065
      ESP Fit Center  240 is at  -0.624290  1.932602 -1.249057
      ESP Fit Center  241 is at  -1.028021  2.037136 -1.249057
      ESP Fit Center  242 is at  -1.444530  2.058258 -1.249057
      ESP Fit Center  243 is at  -1.856765  1.995106 -1.249057
      ESP Fit Center  244 is at  -2.247850  1.850265 -1.249057
      ESP Fit Center  245 is at  -2.601772  1.629663 -1.249057
      ESP Fit Center  246 is at  -2.904042  1.342334 -1.249057
      ESP Fit Center  247 is at  -3.142287  1.000039 -1.249057
      ESP Fit Center  248 is at  -3.306750  0.616793 -1.249057
      ESP Fit Center  249 is at  -3.390701  0.208286 -1.249057
      ESP Fit Center  250 is at  -3.390701 -0.208759 -1.249057
      ESP Fit Center  251 is at  -3.306750 -0.617266 -1.249057
      ESP Fit Center  252 is at  -3.142287 -1.000512 -1.249057
      ESP Fit Center  253 is at  -2.904042 -1.342807 -1.249057
      ESP Fit Center  254 is at  -2.601772 -1.630136 -1.249057
      ESP Fit Center  255 is at  -2.247850 -1.850738 -1.249057
      ESP Fit Center  256 is at  -1.856765 -1.995579 -1.249057
      ESP Fit Center  257 is at  -1.444530 -2.058732 -1.249057
      ESP Fit Center  258 is at  -1.028021 -2.037609 -1.249057
      ESP Fit Center  259 is at  -0.624290 -1.933075 -1.249057
      ESP Fit Center  260 is at  -0.618008  1.673842 -1.588891
      ESP Fit Center  261 is at  -1.023542  1.795251 -1.588891
      ESP Fit Center  262 is at  -1.446144  1.819865 -1.588891
      ESP Fit Center  263 is at  -1.863031  1.746356 -1.588891
      ESP Fit Center  264 is at  -2.251728  1.578689 -1.588891
      ESP Fit Center  265 is at  -2.591281  1.325901 -1.588891
      ESP Fit Center  266 is at  -2.863385  1.001620 -1.588891
      ESP Fit Center  267 is at  -3.053370  0.623330 -1.588891
      ESP Fit Center  268 is at  -3.150993  0.211422 -1.588891
      ESP Fit Center  269 is at  -3.150993 -0.211895 -1.588891
      ESP Fit Center  270 is at  -3.053370 -0.623803 -1.588891
      ESP Fit Center  271 is at  -2.863385 -1.002093 -1.588891
      ESP Fit Center  272 is at  -2.591281 -1.326374 -1.588891
      ESP Fit Center  273 is at  -2.251728 -1.579162 -1.588891
      ESP Fit Center  274 is at  -1.863031 -1.746829 -1.588891
      ESP Fit Center  275 is at  -1.446144 -1.820338 -1.588891
      ESP Fit Center  276 is at  -1.023542 -1.795724 -1.588891
      ESP Fit Center  277 is at  -0.618008 -1.674315 -1.588891
      ESP Fit Center  278 is at   0.189699 -0.000237 -1.882242
      ESP Fit Center  279 is at  -0.636312  1.358081 -1.882242
      ESP Fit Center  280 is at  -1.028881  1.497600 -1.882242
      ESP Fit Center  281 is at  -1.444535  1.526032 -1.882242
      ESP Fit Center  282 is at  -1.852446  1.441267 -1.882242
      ESP Fit Center  283 is at  -2.222361  1.249592 -1.882242
      ESP Fit Center  284 is at  -2.526845  0.965224 -1.882242
      ESP Fit Center  285 is at  -2.743317  0.609251 -1.882242
      ESP Fit Center  286 is at  -2.855721  0.208076 -1.882242
      ESP Fit Center  287 is at  -2.855721 -0.208549 -1.882242
      ESP Fit Center  288 is at  -2.743317 -0.609724 -1.882242
      ESP Fit Center  289 is at  -2.526845 -0.965697 -1.882242
      ESP Fit Center  290 is at  -2.222361 -1.250065 -1.882242
      ESP Fit Center  291 is at  -1.852446 -1.441740 -1.882242
      ESP Fit Center  292 is at  -1.444535 -1.526505 -1.882242
      ESP Fit Center  293 is at  -1.028881 -1.498073 -1.882242
      ESP Fit Center  294 is at  -0.636312 -1.358554 -1.882242
      ESP Fit Center  295 is at  -0.150135 -0.000237 -2.120197
      ESP Fit Center  296 is at  -0.221901  0.406767 -2.120197
      ESP Fit Center  297 is at  -0.428542  0.764681 -2.120197
      ESP Fit Center  298 is at  -0.745135  1.030334 -2.120197
      ESP Fit Center  299 is at  -1.133494  1.171685 -2.120197
      ESP Fit Center  300 is at  -1.546777  1.171685 -2.120197
      ESP Fit Center  301 is at  -1.935135  1.030334 -2.120197
      ESP Fit Center  302 is at  -2.251728  0.764681 -2.120197
      ESP Fit Center  303 is at  -2.458370  0.406767 -2.120197
      ESP Fit Center  304 is at  -2.530135 -0.000237 -2.120197
      ESP Fit Center  305 is at  -2.458370 -0.407240 -2.120197
      ESP Fit Center  306 is at  -2.251728 -0.765154 -2.120197
      ESP Fit Center  307 is at  -1.935135 -1.030807 -2.120197
      ESP Fit Center  308 is at  -1.546777 -1.172158 -2.120197
      ESP Fit Center  309 is at  -1.133494 -1.172158 -2.120197
      ESP Fit Center  310 is at  -0.745135 -1.030807 -2.120197
      ESP Fit Center  311 is at  -0.428542 -0.765154 -2.120197
      ESP Fit Center  312 is at  -0.221901 -0.407240 -2.120197
      ESP Fit Center  313 is at  -0.526127 -0.000237 -2.295525
      ESP Fit Center  314 is at  -0.635184  0.406767 -2.295525
      ESP Fit Center  315 is at  -0.933131  0.704715 -2.295525
      ESP Fit Center  316 is at  -1.340135  0.813771 -2.295525
      ESP Fit Center  317 is at  -1.747139  0.704715 -2.295525
      ESP Fit Center  318 is at  -2.045087  0.406767 -2.295525
      ESP Fit Center  319 is at  -2.154143 -0.000237 -2.295525
      ESP Fit Center  320 is at  -2.045087 -0.407240 -2.295525
      ESP Fit Center  321 is at  -1.747139 -0.705188 -2.295525
      ESP Fit Center  322 is at  -1.340135 -0.814244 -2.295525
      ESP Fit Center  323 is at  -0.933131 -0.705188 -2.295525
      ESP Fit Center  324 is at  -0.635184 -0.407240 -2.295525
      ESP Fit Center  325 is at  -0.926853 -0.000237 -2.402899
      ESP Fit Center  326 is at  -1.133494  0.357677 -2.402899
      ESP Fit Center  327 is at  -1.546777  0.357677 -2.402899
      ESP Fit Center  328 is at  -1.753418 -0.000237 -2.402899
      ESP Fit Center  329 is at  -1.546777 -0.358150 -2.402899
      ESP Fit Center  330 is at  -1.133494 -0.358150 -2.402899
      ESP Fit Center  331 is at  -1.340135 -0.000237 -2.439057
      ESP Fit Center  332 is at   0.563995  2.158177  1.947487
      ESP Fit Center  333 is at   0.998811  2.158177  1.890242
      ESP Fit Center  334 is at   0.781403  2.534739  1.890242
      ESP Fit Center  335 is at   0.346587  2.534739  1.890242
      ESP Fit Center  336 is at   0.129179  2.158177  1.890242
      ESP Fit Center  337 is at   0.346587  1.781616  1.890242
      ESP Fit Center  338 is at   1.291457  2.578177  1.722410
      ESP Fit Center  339 is at   0.983995  2.885639  1.722410
      ESP Fit Center  340 is at   0.563995  2.998177  1.722410
      ESP Fit Center  341 is at   0.143995  2.885639  1.722410
      ESP Fit Center  342 is at  -0.163466  2.578177  1.722410
      ESP Fit Center  343 is at  -0.276005  2.158177  1.722410
      ESP Fit Center  344 is at  -0.163466  1.738177  1.722410
      ESP Fit Center  345 is at   1.671716  2.587310  1.455426
      ESP Fit Center  346 is at   1.441893  2.958487  1.455426
      ESP Fit Center  347 is at   1.093505  3.221577  1.455426
      ESP Fit Center  348 is at   0.673605  3.341049  1.455426
      ESP Fit Center  349 is at   0.238900  3.300768  1.455426
      ESP Fit Center  350 is at  -0.151898  3.106173  1.455426
      ESP Fit Center  351 is at  -0.446011  2.783547  1.455426
      ESP Fit Center  352 is at  -0.603717  2.376461  1.455426
      ESP Fit Center  353 is at  -0.603717  1.939894  1.455426
      ESP Fit Center  354 is at   1.766109  2.977764  1.107487
      ESP Fit Center  355 is at   1.471125  3.295682  1.107487
      ESP Fit Center  356 is at   1.095538  3.512527  1.107487
      ESP Fit Center  357 is at   0.672722  3.609032  1.107487
      ESP Fit Center  358 is at   0.240245  3.576622  1.107487
      ESP Fit Center  359 is at  -0.163466  3.418177  1.107487
      ESP Fit Center  360 is at  -0.502538  3.147776  1.107487
      ESP Fit Center  361 is at  -0.746845  2.789445  1.107487
      ESP Fit Center  362 is at  -0.874677  2.375022  1.107487
      ESP Fit Center  363 is at   1.969343  2.969555  0.702303
      ESP Fit Center  364 is at   1.711457  3.305639  0.702303
      ESP Fit Center  365 is at   1.375373  3.563525  0.702303
      ESP Fit Center  366 is at   0.983995  3.725639  0.702303
      ESP Fit Center  367 is at   0.563995  3.780933  0.702303
      ESP Fit Center  368 is at   0.143995  3.725639  0.702303
      ESP Fit Center  369 is at  -0.247382  3.563525  0.702303
      ESP Fit Center  370 is at  -0.583466  3.305639  0.702303
      ESP Fit Center  371 is at  -0.841352  2.969555  0.702303
      ESP Fit Center  372 is at  -1.003466  2.578177  0.702303
      ESP Fit Center  373 is at   1.788663  3.308216  0.267487
      ESP Fit Center  374 is at   1.464184  3.576648  0.267487
      ESP Fit Center  375 is at   1.083144  3.755952  0.267487
      ESP Fit Center  376 is at   0.669483  3.834862  0.267487
      ESP Fit Center  377 is at   0.249195  3.808420  0.267487
      ESP Fit Center  378 is at  -0.151314  3.678287  0.267487
      ESP Fit Center  379 is at  -0.506877  3.452639  0.267487
      ESP Fit Center  380 is at  -0.795153  3.145656  0.267487
      ESP Fit Center  381 is at  -0.998029  2.776626  0.267487
      ESP Fit Center  382 is at  -1.102757  2.368737  0.267487
      ESP Fit Center  383 is at   1.711457  3.305639 -0.167329
      ESP Fit Center  384 is at   1.375373  3.563525 -0.167329
      ESP Fit Center  385 is at   0.983995  3.725639 -0.167329
      ESP Fit Center  386 is at   0.563995  3.780933 -0.167329
      ESP Fit Center  387 is at   0.143995  3.725639 -0.167329
      ESP Fit Center  388 is at  -0.247382  3.563525 -0.167329
      ESP Fit Center  389 is at  -0.583466  3.305639 -0.167329
      ESP Fit Center  390 is at  -0.841352  2.969555 -0.167329
      ESP Fit Center  391 is at  -1.003466  2.578177 -0.167329
      ESP Fit Center  392 is at   1.471125  3.295682 -0.572513
      ESP Fit Center  393 is at   1.095538  3.512527 -0.572513
      ESP Fit Center  394 is at   0.672722  3.609032 -0.572513
      ESP Fit Center  395 is at   0.240245  3.576622 -0.572513
      ESP Fit Center  396 is at  -0.163466  3.418177 -0.572513
      ESP Fit Center  397 is at  -0.502538  3.147776 -0.572513
      ESP Fit Center  398 is at  -0.746845  2.789445 -0.572513
      ESP Fit Center  399 is at  -0.874677  2.375022 -0.572513
      ESP Fit Center  400 is at   1.093505  3.221577 -0.920453
      ESP Fit Center  401 is at   0.673605  3.341049 -0.920453
      ESP Fit Center  402 is at   0.238900  3.300768 -0.920453
      ESP Fit Center  403 is at  -0.151898  3.106173 -0.920453
      ESP Fit Center  404 is at  -0.446011  2.783547 -0.920453
      ESP Fit Center  405 is at  -0.603717  2.376461 -0.920453
      ESP Fit Center  406 is at   0.143995  2.885639 -1.187436
      ESP Fit Center  407 is at   2.104999  1.295554  1.870359
      ESP Fit Center  408 is at   2.539815  1.295554  1.813115
      ESP Fit Center  409 is at   2.322407  1.672116  1.813115
      ESP Fit Center  410 is at   1.887591  1.672116  1.813115
      ESP Fit Center  411 is at   1.887591  0.918993  1.813115
      ESP Fit Center  412 is at   2.322407  0.918993  1.813115
      ESP Fit Center  413 is at   2.944999  1.295554  1.645282
      ESP Fit Center  414 is at   2.832461  1.715554  1.645282
      ESP Fit Center  415 is at   2.524999  2.023016  1.645282
      ESP Fit Center  416 is at   2.104999  2.135554  1.645282
      ESP Fit Center  417 is at   2.104999  0.455554  1.645282
      ESP Fit Center  418 is at   2.524999  0.568093  1.645282
      ESP Fit Center  419 is at   2.832461  0.875554  1.645282
      ESP Fit Center  420 is at   3.292939  1.295554  1.378299
      ESP Fit Center  421 is at   3.212720  1.724687  1.378299
      ESP Fit Center  422 is at   2.982897  2.095864  1.378299
      ESP Fit Center  423 is at   2.634509  2.358954  1.378299
      ESP Fit Center  424 is at   2.214608  2.478426  1.378299
      ESP Fit Center  425 is at   2.634509  0.232155  1.378299
      ESP Fit Center  426 is at   2.982897  0.495245  1.378299
      ESP Fit Center  427 is at   3.212720  0.866421  1.378299
      ESP Fit Center  428 is at   3.559922  1.295554  1.030359
      ESP Fit Center  429 is at   3.495284  1.724400  1.030359
      ESP Fit Center  430 is at   3.307113  2.115141  1.030359
      ESP Fit Center  431 is at   3.012129  2.433059  1.030359
      ESP Fit Center  432 is at   2.636542  2.649904  1.030359
      ESP Fit Center  433 is at   2.213726  2.746409  1.030359
      ESP Fit Center  434 is at   3.012129  0.158050  1.030359
      ESP Fit Center  435 is at   3.307113  0.475967  1.030359
      ESP Fit Center  436 is at   3.495284  0.866708  1.030359
      ESP Fit Center  437 is at   3.727755  1.295554  0.625175
      ESP Fit Center  438 is at   3.672461  1.715554  0.625175
      ESP Fit Center  439 is at   3.510347  2.106932  0.625175
      ESP Fit Center  440 is at   3.252461  2.443016  0.625175
      ESP Fit Center  441 is at   2.916377  2.700902  0.625175
      ESP Fit Center  442 is at   2.524999  2.863016  0.625175
      ESP Fit Center  443 is at   2.104999  2.918310  0.625175
      ESP Fit Center  444 is at   3.252461  0.148093  0.625175
      ESP Fit Center  445 is at   3.510347  0.484177  0.625175
      ESP Fit Center  446 is at   3.672461  0.875554  0.625175
      ESP Fit Center  447 is at   3.784999  1.295554  0.190359
      ESP Fit Center  448 is at   3.732219  1.713353  0.190359
      ESP Fit Center  449 is at   3.577194  2.104900  0.190359
      ESP Fit Center  450 is at   3.329666  2.445593  0.190359
      ESP Fit Center  451 is at   3.005188  2.714025  0.190359
      ESP Fit Center  452 is at   2.624148  2.893329  0.190359
      ESP Fit Center  453 is at   3.329666  0.145515  0.190359
      ESP Fit Center  454 is at   3.577194  0.486208  0.190359
      ESP Fit Center  455 is at   3.732219  0.877755  0.190359
      ESP Fit Center  456 is at   3.727755  1.295554 -0.244457
      ESP Fit Center  457 is at   3.672461  1.715554 -0.244457
      ESP Fit Center  458 is at   3.510347  2.106932 -0.244457
      ESP Fit Center  459 is at   3.252461  2.443016 -0.244457
      ESP Fit Center  460 is at   2.916377  2.700902 -0.244457
      ESP Fit Center  461 is at   2.524999  2.863016 -0.244457
      ESP Fit Center  462 is at   3.252461  0.148093 -0.244457
      ESP Fit Center  463 is at   3.510347  0.484177 -0.244457
      ESP Fit Center  464 is at   3.672461  0.875554 -0.244457
      ESP Fit Center  465 is at   3.559922  1.295554 -0.649641
      ESP Fit Center  466 is at   3.495284  1.724400 -0.649641
      ESP Fit Center  467 is at   3.307113  2.115141 -0.649641
      ESP Fit Center  468 is at   3.012129  2.433059 -0.649641
      ESP Fit Center  469 is at   2.636542  2.649904 -0.649641
      ESP Fit Center  470 is at   3.012129  0.158050 -0.649641
      ESP Fit Center  471 is at   3.307113  0.475967 -0.649641
      ESP Fit Center  472 is at   3.495284  0.866708 -0.649641
      ESP Fit Center  473 is at   3.292939  1.295554 -0.997580
      ESP Fit Center  474 is at   3.212720  1.724687 -0.997580
      ESP Fit Center  475 is at   2.982897  2.095864 -0.997580
      ESP Fit Center  476 is at   2.634509  2.358954 -0.997580
      ESP Fit Center  477 is at   2.982897  0.495245 -0.997580
      ESP Fit Center  478 is at   3.212720  0.866421 -0.997580
      ESP Fit Center  479 is at   2.944999  1.295554 -1.264563
      ESP Fit Center  480 is at   2.832461  1.715554 -1.264563
      ESP Fit Center  481 is at   2.832461  0.875554 -1.264563
      ESP Fit Center  482 is at   2.650034  1.300790 -1.649205
      ESP Fit Center  483 is at   2.594740  1.720790 -1.649205
      ESP Fit Center  484 is at   2.432626  2.112168 -1.649205
      ESP Fit Center  485 is at   2.174740  2.448251 -1.649205
      ESP Fit Center  486 is at   1.838656  2.706137 -1.649205
      ESP Fit Center  487 is at   1.447278  2.868251 -1.649205
      ESP Fit Center  488 is at   1.027278  2.923545 -1.649205
      ESP Fit Center  489 is at   0.607278  2.868251 -1.649205
      ESP Fit Center  490 is at   0.215901  2.706137 -1.649205
      ESP Fit Center  491 is at  -0.120183  2.448251 -1.649205
      ESP Fit Center  492 is at  -0.378069  2.112168 -1.649205
      ESP Fit Center  493 is at  -0.540183  1.720790 -1.649205
      ESP Fit Center  494 is at   2.174740  0.153329 -1.649205
      ESP Fit Center  495 is at   2.432626  0.489412 -1.649205
      ESP Fit Center  496 is at   2.594740  0.880790 -1.649205
      ESP Fit Center  497 is at   2.482201  1.300790 -2.054389
      ESP Fit Center  498 is at   2.417563  1.729636 -2.054389
      ESP Fit Center  499 is at   2.229392  2.120377 -2.054389
      ESP Fit Center  500 is at   1.934408  2.438294 -2.054389
      ESP Fit Center  501 is at   1.558821  2.655139 -2.054389
      ESP Fit Center  502 is at   1.136005  2.751644 -2.054389
      ESP Fit Center  503 is at   0.703528  2.719235 -2.054389
      ESP Fit Center  504 is at   0.299817  2.560790 -2.054389
      ESP Fit Center  505 is at  -0.039256  2.290389 -2.054389
      ESP Fit Center  506 is at  -0.283562  1.932057 -2.054389
      ESP Fit Center  507 is at  -0.411394  1.517635 -2.054389
      ESP Fit Center  508 is at  -0.411394  1.083945 -2.054389
      ESP Fit Center  509 is at  -0.039256  0.311191 -2.054389
      ESP Fit Center  510 is at   0.299817  0.040790 -2.054389
      ESP Fit Center  511 is at   1.934408  0.163286 -2.054389
      ESP Fit Center  512 is at   2.229392  0.481203 -2.054389
      ESP Fit Center  513 is at   2.417563  0.871944 -2.054389
      ESP Fit Center  514 is at   2.215218  1.300790 -2.402328
      ESP Fit Center  515 is at   2.134999  1.729923 -2.402328
      ESP Fit Center  516 is at   1.905176  2.101100 -2.402328
      ESP Fit Center  517 is at   1.556788  2.364190 -2.402328
      ESP Fit Center  518 is at   1.136888  2.483662 -2.402328
      ESP Fit Center  519 is at   0.702183  2.443381 -2.402328
      ESP Fit Center  520 is at   0.311385  2.248786 -2.402328
      ESP Fit Center  521 is at   0.017272  1.926160 -2.402328
      ESP Fit Center  522 is at  -0.140434  1.519073 -2.402328
      ESP Fit Center  523 is at  -0.140434  1.082507 -2.402328
      ESP Fit Center  524 is at   0.017272  0.675420 -2.402328
      ESP Fit Center  525 is at   0.311385  0.352794 -2.402328
      ESP Fit Center  526 is at   0.702183  0.158199 -2.402328
      ESP Fit Center  527 is at   1.136888  0.117918 -2.402328
      ESP Fit Center  528 is at   1.556788  0.237390 -2.402328
      ESP Fit Center  529 is at   1.905176  0.500480 -2.402328
      ESP Fit Center  530 is at   2.134999  0.871657 -2.402328
      ESP Fit Center  531 is at   1.867278  1.300790 -2.669312
      ESP Fit Center  532 is at   1.754740  1.720790 -2.669312
      ESP Fit Center  533 is at   1.447278  2.028251 -2.669312
      ESP Fit Center  534 is at   1.027278  2.140790 -2.669312
      ESP Fit Center  535 is at   0.607278  2.028251 -2.669312
      ESP Fit Center  536 is at   0.299817  1.720790 -2.669312
      ESP Fit Center  537 is at   0.187278  1.300790 -2.669312
      ESP Fit Center  538 is at   0.299817  0.880790 -2.669312
      ESP Fit Center  539 is at   0.607278  0.573329 -2.669312
      ESP Fit Center  540 is at   1.027278  0.460790 -2.669312
      ESP Fit Center  541 is at   1.447278  0.573329 -2.669312
      ESP Fit Center  542 is at   1.754740  0.880790 -2.669312
      ESP Fit Center  543 is at   1.462094  1.300790 -2.837144
      ESP Fit Center  544 is at   1.244686  1.677352 -2.837144
      ESP Fit Center  545 is at   0.809870  1.677352 -2.837144
      ESP Fit Center  546 is at   0.592462  1.300790 -2.837144
      ESP Fit Center  547 is at   0.809870  0.924228 -2.837144
      ESP Fit Center  548 is at   1.244686  0.924228 -2.837144
      ESP Fit Center  549 is at   1.027278  1.300790 -2.894389
      ESP Fit Center  550 is at   0.416041 -0.000018  3.183650
      ESP Fit Center  551 is at   0.850857 -0.000018  3.126405
      ESP Fit Center  552 is at   0.633449  0.376544  3.126405
      ESP Fit Center  553 is at   0.198633  0.376544  3.126405
      ESP Fit Center  554 is at  -0.018775 -0.000018  3.126405
      ESP Fit Center  555 is at   0.198633 -0.376579  3.126405
      ESP Fit Center  556 is at   0.633449 -0.376579  3.126405
      ESP Fit Center  557 is at   1.256041 -0.000018  2.958572
      ESP Fit Center  558 is at   1.143502  0.419982  2.958572
      ESP Fit Center  559 is at   0.836041  0.727444  2.958572
      ESP Fit Center  560 is at   0.416041  0.839982  2.958572
      ESP Fit Center  561 is at  -0.003959  0.727444  2.958572
      ESP Fit Center  562 is at  -0.311421  0.419982  2.958572
      ESP Fit Center  563 is at  -0.423959 -0.000018  2.958572
      ESP Fit Center  564 is at  -0.311421 -0.420018  2.958572
      ESP Fit Center  565 is at  -0.003959 -0.727479  2.958572
      ESP Fit Center  566 is at   0.416041 -0.840018  2.958572
      ESP Fit Center  567 is at   0.836041 -0.727479  2.958572
      ESP Fit Center  568 is at   1.143502 -0.420018  2.958572
      ESP Fit Center  569 is at   1.603980 -0.000018  2.691589
      ESP Fit Center  570 is at   1.523761  0.429116  2.691589
      ESP Fit Center  571 is at   1.293939  0.800292  2.691589
      ESP Fit Center  572 is at   0.945551  1.063382  2.691589
      ESP Fit Center  573 is at   0.525650  1.182854  2.691589
      ESP Fit Center  574 is at   0.090946  1.142573  2.691589
      ESP Fit Center  575 is at  -0.299853  0.947979  2.691589
      ESP Fit Center  576 is at  -0.593966  0.625352  2.691589
      ESP Fit Center  577 is at  -0.751672  0.218266  2.691589
      ESP Fit Center  578 is at  -0.751672 -0.218301  2.691589
      ESP Fit Center  579 is at  -0.593966 -0.625387  2.691589
      ESP Fit Center  580 is at  -0.299853 -0.948014  2.691589
      ESP Fit Center  581 is at   0.090946 -1.142608  2.691589
      ESP Fit Center  582 is at   0.525650 -1.182889  2.691589
      ESP Fit Center  583 is at   0.945551 -1.063417  2.691589
      ESP Fit Center  584 is at   1.293939 -0.800327  2.691589
      ESP Fit Center  585 is at   1.523761 -0.429151  2.691589
      ESP Fit Center  586 is at   1.870964 -0.000018  2.343650
      ESP Fit Center  587 is at   1.806325  0.428828  2.343650
      ESP Fit Center  588 is at   1.618154  0.819570  2.343650
      ESP Fit Center  589 is at   1.323170  1.137487  2.343650
      ESP Fit Center  590 is at   0.947584  1.354332  2.343650
      ESP Fit Center  591 is at   0.524767  1.450837  2.343650
      ESP Fit Center  592 is at   0.092290  1.418427  2.343650
      ESP Fit Center  593 is at  -0.311421  1.259982  2.343650
      ESP Fit Center  594 is at  -0.650493  0.989581  2.343650
      ESP Fit Center  595 is at  -0.894799  0.631250  2.343650
      ESP Fit Center  596 is at  -1.022632  0.216827  2.343650
      ESP Fit Center  597 is at  -1.022632 -0.216863  2.343650
      ESP Fit Center  598 is at  -0.894799 -0.631285  2.343650
      ESP Fit Center  599 is at  -0.650493 -0.989616  2.343650
      ESP Fit Center  600 is at  -0.311421 -1.260018  2.343650
      ESP Fit Center  601 is at   0.092290 -1.418462  2.343650
      ESP Fit Center  602 is at   0.524767 -1.450872  2.343650
      ESP Fit Center  603 is at   0.947584 -1.354367  2.343650
      ESP Fit Center  604 is at   1.323170 -1.137522  2.343650
      ESP Fit Center  605 is at   1.618154 -0.819605  2.343650
      ESP Fit Center  606 is at   1.806325 -0.428864  2.343650
      ESP Fit Center  607 is at   2.038796 -0.000018  1.938466
      ESP Fit Center  608 is at   1.983502  0.419982  1.938466
      ESP Fit Center  609 is at   1.821388  0.811360  1.938466
      ESP Fit Center  610 is at   1.563502  1.147444  1.938466
      ESP Fit Center  611 is at   0.416041  1.622738  1.938466
      ESP Fit Center  612 is at  -0.003959  1.567444  1.938466
      ESP Fit Center  613 is at  -0.395337  1.405330  1.938466
      ESP Fit Center  614 is at  -0.731421  1.147444  1.938466
      ESP Fit Center  615 is at  -0.731421 -1.147479  1.938466
      ESP Fit Center  616 is at  -0.395337 -1.405365  1.938466
      ESP Fit Center  617 is at  -0.003959 -1.567479  1.938466
      ESP Fit Center  618 is at   0.416041 -1.622773  1.938466
      ESP Fit Center  619 is at   1.563502 -1.147479  1.938466
      ESP Fit Center  620 is at   1.821388 -0.811395  1.938466
      ESP Fit Center  621 is at   1.983502 -0.420018  1.938466
      ESP Fit Center  622 is at   0.565153 -2.157876  1.947621
      ESP Fit Center  623 is at   0.999969 -2.157876  1.890377
      ESP Fit Center  624 is at   0.347745 -1.781314  1.890377
      ESP Fit Center  625 is at   0.130337 -2.157876  1.890377
      ESP Fit Center  626 is at   0.347745 -2.534437  1.890377
      ESP Fit Center  627 is at   0.782561 -2.534437  1.890377
      ESP Fit Center  628 is at  -0.162308 -1.737876  1.722544
      ESP Fit Center  629 is at  -0.274847 -2.157876  1.722544
      ESP Fit Center  630 is at  -0.162308 -2.577876  1.722544
      ESP Fit Center  631 is at   0.145153 -2.885337  1.722544
      ESP Fit Center  632 is at   0.565153 -2.997876  1.722544
      ESP Fit Center  633 is at   0.985153 -2.885337  1.722544
      ESP Fit Center  634 is at   1.292614 -2.577876  1.722544
      ESP Fit Center  635 is at  -0.602560 -1.939592  1.455561
      ESP Fit Center  636 is at  -0.602560 -2.376159  1.455561
      ESP Fit Center  637 is at  -0.444853 -2.783245  1.455561
      ESP Fit Center  638 is at  -0.150740 -3.105872  1.455561
      ESP Fit Center  639 is at   0.240058 -3.300466  1.455561
      ESP Fit Center  640 is at   0.674762 -3.340748  1.455561
      ESP Fit Center  641 is at   1.094663 -3.221276  1.455561
      ESP Fit Center  642 is at   1.443051 -2.958185  1.455561
      ESP Fit Center  643 is at   1.672873 -2.587009  1.455561
      ESP Fit Center  644 is at  -0.873519 -2.374721  1.107621
      ESP Fit Center  645 is at  -0.745687 -2.789143  1.107621
      ESP Fit Center  646 is at  -0.501381 -3.147475  1.107621
      ESP Fit Center  647 is at  -0.162308 -3.417876  1.107621
      ESP Fit Center  648 is at   0.241402 -3.576321  1.107621
      ESP Fit Center  649 is at   0.673879 -3.608730  1.107621
      ESP Fit Center  650 is at   1.096696 -3.512225  1.107621
      ESP Fit Center  651 is at   1.472282 -3.295380  1.107621
      ESP Fit Center  652 is at   1.767266 -2.977463  1.107621
      ESP Fit Center  653 is at  -1.002308 -2.577876  0.702437
      ESP Fit Center  654 is at  -0.840194 -2.969253  0.702437
      ESP Fit Center  655 is at  -0.582308 -3.305337  0.702437
      ESP Fit Center  656 is at  -0.246225 -3.563223  0.702437
      ESP Fit Center  657 is at   0.145153 -3.725337  0.702437
      ESP Fit Center  658 is at   0.565153 -3.780631  0.702437
      ESP Fit Center  659 is at   0.985153 -3.725337  0.702437
      ESP Fit Center  660 is at   1.376531 -3.563223  0.702437
      ESP Fit Center  661 is at   1.712614 -3.305337  0.702437
      ESP Fit Center  662 is at   1.970500 -2.969253  0.702437
      ESP Fit Center  663 is at  -1.101600 -2.368436  0.267621
      ESP Fit Center  664 is at  -0.996872 -2.776325  0.267621
      ESP Fit Center  665 is at  -0.793996 -3.145355  0.267621
      ESP Fit Center  666 is at  -0.505719 -3.452338  0.267621
      ESP Fit Center  667 is at  -0.150156 -3.677985  0.267621
      ESP Fit Center  668 is at   0.250352 -3.808118  0.267621
      ESP Fit Center  669 is at   0.670641 -3.834561  0.267621
      ESP Fit Center  670 is at   1.084301 -3.755651  0.267621
      ESP Fit Center  671 is at   1.465342 -3.576347  0.267621
      ESP Fit Center  672 is at   1.789820 -3.307915  0.267621
      ESP Fit Center  673 is at  -1.002308 -2.577876 -0.167195
      ESP Fit Center  674 is at  -0.840194 -2.969253 -0.167195
      ESP Fit Center  675 is at  -0.582308 -3.305337 -0.167195
      ESP Fit Center  676 is at  -0.246225 -3.563223 -0.167195
      ESP Fit Center  677 is at   0.145153 -3.725337 -0.167195
      ESP Fit Center  678 is at   0.565153 -3.780631 -0.167195
      ESP Fit Center  679 is at   0.985153 -3.725337 -0.167195
      ESP Fit Center  680 is at   1.376531 -3.563223 -0.167195
      ESP Fit Center  681 is at   1.712614 -3.305337 -0.167195
      ESP Fit Center  682 is at  -0.873519 -2.374721 -0.572379
      ESP Fit Center  683 is at  -0.745687 -2.789143 -0.572379
      ESP Fit Center  684 is at  -0.501381 -3.147475 -0.572379
      ESP Fit Center  685 is at  -0.162308 -3.417876 -0.572379
      ESP Fit Center  686 is at   0.241402 -3.576321 -0.572379
      ESP Fit Center  687 is at   0.673879 -3.608730 -0.572379
      ESP Fit Center  688 is at   1.096696 -3.512225 -0.572379
      ESP Fit Center  689 is at   1.472282 -3.295380 -0.572379
      ESP Fit Center  690 is at  -0.602560 -2.376159 -0.920318
      ESP Fit Center  691 is at  -0.444853 -2.783245 -0.920318
      ESP Fit Center  692 is at  -0.150740 -3.105872 -0.920318
      ESP Fit Center  693 is at   0.240058 -3.300466 -0.920318
      ESP Fit Center  694 is at   0.674762 -3.340748 -0.920318
      ESP Fit Center  695 is at   1.094663 -3.221276 -0.920318
      ESP Fit Center  696 is at   0.145153 -2.885337 -1.187301
      ESP Fit Center  697 is at   2.105585 -1.294267  1.870050
      ESP Fit Center  698 is at   2.540401 -1.294267  1.812805
      ESP Fit Center  699 is at   2.322993 -0.917705  1.812805
      ESP Fit Center  700 is at   1.888177 -0.917705  1.812805
      ESP Fit Center  701 is at   1.888177 -1.670829  1.812805
      ESP Fit Center  702 is at   2.322993 -1.670829  1.812805
      ESP Fit Center  703 is at   2.945585 -1.294267  1.644972
      ESP Fit Center  704 is at   2.833046 -0.874267  1.644972
      ESP Fit Center  705 is at   2.525585 -0.566806  1.644972
      ESP Fit Center  706 is at   2.105585 -0.454267  1.644972
      ESP Fit Center  707 is at   2.105585 -2.134267  1.644972
      ESP Fit Center  708 is at   2.525585 -2.021728  1.644972
      ESP Fit Center  709 is at   2.833046 -1.714267  1.644972
      ESP Fit Center  710 is at   3.293525 -1.294267  1.377989
      ESP Fit Center  711 is at   3.213306 -0.865134  1.377989
      ESP Fit Center  712 is at   2.983483 -0.493957  1.377989
      ESP Fit Center  713 is at   2.635095 -0.230867  1.377989
      ESP Fit Center  714 is at   2.215194 -2.477139  1.377989
      ESP Fit Center  715 is at   2.635095 -2.357667  1.377989
      ESP Fit Center  716 is at   2.983483 -2.094576  1.377989
      ESP Fit Center  717 is at   3.213306 -1.723400  1.377989
      ESP Fit Center  718 is at   3.560508 -1.294267  1.030050
      ESP Fit Center  719 is at   3.495870 -0.865421  1.030050
      ESP Fit Center  720 is at   3.307699 -0.474680  1.030050
      ESP Fit Center  721 is at   3.012715 -0.156763  1.030050
      ESP Fit Center  722 is at   2.214312 -2.745121  1.030050
      ESP Fit Center  723 is at   2.637128 -2.648616  1.030050
      ESP Fit Center  724 is at   3.012715 -2.431771  1.030050
      ESP Fit Center  725 is at   3.307699 -2.113854  1.030050
      ESP Fit Center  726 is at   3.495870 -1.723113  1.030050
      ESP Fit Center  727 is at   3.728341 -1.294267  0.624866
      ESP Fit Center  728 is at   3.673046 -0.874267  0.624866
      ESP Fit Center  729 is at   3.510933 -0.482889  0.624866
      ESP Fit Center  730 is at   3.253046 -0.146806  0.624866
      ESP Fit Center  731 is at   2.525585 -2.861728  0.624866
      ESP Fit Center  732 is at   2.916963 -2.699614  0.624866
      ESP Fit Center  733 is at   3.253046 -2.441728  0.624866
      ESP Fit Center  734 is at   3.510933 -2.105645  0.624866
      ESP Fit Center  735 is at   3.673046 -1.714267  0.624866
      ESP Fit Center  736 is at   3.785585 -1.294267  0.190050
      ESP Fit Center  737 is at   3.732805 -0.876468  0.190050
      ESP Fit Center  738 is at   3.577780 -0.484921  0.190050
      ESP Fit Center  739 is at   3.330252 -0.144228  0.190050
      ESP Fit Center  740 is at   2.624734 -2.892042  0.190050
      ESP Fit Center  741 is at   3.005774 -2.712738  0.190050
      ESP Fit Center  742 is at   3.330252 -2.444306  0.190050
      ESP Fit Center  743 is at   3.577780 -2.103613  0.190050
      ESP Fit Center  744 is at   3.732805 -1.712066  0.190050
      ESP Fit Center  745 is at   3.728341 -1.294267 -0.244766
      ESP Fit Center  746 is at   3.673046 -0.874267 -0.244766
      ESP Fit Center  747 is at   3.510933 -0.482889 -0.244766
      ESP Fit Center  748 is at   3.253046 -0.146806 -0.244766
      ESP Fit Center  749 is at   2.525585 -2.861728 -0.244766
      ESP Fit Center  750 is at   2.916963 -2.699614 -0.244766
      ESP Fit Center  751 is at   3.253046 -2.441728 -0.244766
      ESP Fit Center  752 is at   3.510933 -2.105645 -0.244766
      ESP Fit Center  753 is at   3.673046 -1.714267 -0.244766
      ESP Fit Center  754 is at   3.560508 -1.294267 -0.649950
      ESP Fit Center  755 is at   3.495870 -0.865421 -0.649950
      ESP Fit Center  756 is at   3.307699 -0.474680 -0.649950
      ESP Fit Center  757 is at   3.012715 -0.156763 -0.649950
      ESP Fit Center  758 is at   2.637128 -2.648616 -0.649950
      ESP Fit Center  759 is at   3.012715 -2.431771 -0.649950
      ESP Fit Center  760 is at   3.307699 -2.113854 -0.649950
      ESP Fit Center  761 is at   3.495870 -1.723113 -0.649950
      ESP Fit Center  762 is at   3.293525 -1.294267 -0.997890
      ESP Fit Center  763 is at   3.213306 -0.865134 -0.997890
      ESP Fit Center  764 is at   2.983483 -0.493957 -0.997890
      ESP Fit Center  765 is at   2.635095 -2.357667 -0.997890
      ESP Fit Center  766 is at   2.983483 -2.094576 -0.997890
      ESP Fit Center  767 is at   3.213306 -1.723400 -0.997890
      ESP Fit Center  768 is at   2.945585 -1.294267 -1.264873
      ESP Fit Center  769 is at   2.833046 -0.874267 -1.264873
      ESP Fit Center  770 is at   2.833046 -1.714267 -1.264873
      ESP Fit Center  771 is at   2.650672 -1.301093 -1.648802
      ESP Fit Center  772 is at   2.595378 -0.881093 -1.648802
      ESP Fit Center  773 is at   2.433264 -0.489715 -1.648802
      ESP Fit Center  774 is at   2.175378 -0.153632 -1.648802
      ESP Fit Center  775 is at  -0.539545 -1.721093 -1.648802
      ESP Fit Center  776 is at  -0.377431 -2.112471 -1.648802
      ESP Fit Center  777 is at  -0.119545 -2.448554 -1.648802
      ESP Fit Center  778 is at   0.216538 -2.706440 -1.648802
      ESP Fit Center  779 is at   0.607916 -2.868554 -1.648802
      ESP Fit Center  780 is at   1.027916 -2.923848 -1.648802
      ESP Fit Center  781 is at   1.447916 -2.868554 -1.648802
      ESP Fit Center  782 is at   1.839294 -2.706440 -1.648802
      ESP Fit Center  783 is at   2.175378 -2.448554 -1.648802
      ESP Fit Center  784 is at   2.433264 -2.112471 -1.648802
      ESP Fit Center  785 is at   2.595378 -1.721093 -1.648802
      ESP Fit Center  786 is at   2.482839 -1.301093 -2.053986
      ESP Fit Center  787 is at   2.418201 -0.872247 -2.053986
      ESP Fit Center  788 is at   2.230030 -0.481506 -2.053986
      ESP Fit Center  789 is at   1.935046 -0.163589 -2.053986
      ESP Fit Center  790 is at   0.300455 -0.041093 -2.053986
      ESP Fit Center  791 is at  -0.038618 -0.311494 -2.053986
      ESP Fit Center  792 is at  -0.410756 -1.084248 -2.053986
      ESP Fit Center  793 is at  -0.410756 -1.517938 -2.053986
      ESP Fit Center  794 is at  -0.282924 -1.932360 -2.053986
      ESP Fit Center  795 is at  -0.038618 -2.290692 -2.053986
      ESP Fit Center  796 is at   0.300455 -2.561093 -2.053986
      ESP Fit Center  797 is at   0.704165 -2.719538 -2.053986
      ESP Fit Center  798 is at   1.136643 -2.751947 -2.053986
      ESP Fit Center  799 is at   1.559459 -2.655442 -2.053986
      ESP Fit Center  800 is at   1.935046 -2.438597 -2.053986
      ESP Fit Center  801 is at   2.230030 -2.120680 -2.053986
      ESP Fit Center  802 is at   2.418201 -1.729939 -2.053986
      ESP Fit Center  803 is at   2.215856 -1.301093 -2.401926
      ESP Fit Center  804 is at   2.135637 -0.871960 -2.401926
      ESP Fit Center  805 is at   1.905814 -0.500783 -2.401926
      ESP Fit Center  806 is at   1.557426 -0.237693 -2.401926
      ESP Fit Center  807 is at   1.137525 -0.118221 -2.401926
      ESP Fit Center  808 is at   0.702821 -0.158502 -2.401926
      ESP Fit Center  809 is at   0.312023 -0.353097 -2.401926
[...]
 3500 Fit      -0.013071
 3501 Fit      -0.012596
 3502 Fit      -0.011744
 3503 Fit      -0.010462
 3504 Fit      -0.008709
 3505 Fit      -0.006497
 3506 Fit      -0.008853
 3507 Fit      -0.010606
 3508 Fit      -0.011850
 3509 Fit      -0.012647
 3510 Fit      -0.013072
 3511 Fit      -0.013216
 3512 Fit      -0.013183
 3513 Fit      -0.013071
 3514 Fit      -0.012967
 3515 Fit      -0.012925
 3516 Fit      -0.012967
 3517 Fit      -0.013071
 3518 Fit      -0.013183
 3519 Fit      -0.013216
 3520 Fit      -0.013072
 3521 Fit      -0.012647
 3522 Fit      -0.011850
 3523 Fit      -0.010607
 3524 Fit      -0.008854
 3525 Fit      -0.006498
 3526 Fit      -0.007244
 3527 Fit      -0.009458
 3528 Fit      -0.011076
 3529 Fit      -0.012167
 3530 Fit      -0.012811
 3531 Fit      -0.013113
 3532 Fit      -0.013191
 3533 Fit      -0.013163
 3534 Fit      -0.013124
 3535 Fit      -0.013124
 3536 Fit      -0.013163
 3537 Fit      -0.013191
 3538 Fit      -0.013113
 3539 Fit      -0.012811
 3540 Fit      -0.012167
 3541 Fit      -0.011076
 3542 Fit      -0.009458
 3543 Fit      -0.007245
 3544 Fit       0.000792
 3545 Fit      -0.005557
 3546 Fit      -0.008034
 3547 Fit      -0.010026
 3548 Fit      -0.011462
 3549 Fit      -0.012381
 3550 Fit      -0.012881
 3551 Fit      -0.013094
 3552 Fit      -0.013155
 3553 Fit      -0.013163
 3554 Fit      -0.013155
 3555 Fit      -0.013094
 3556 Fit      -0.012881
 3557 Fit      -0.012381
 3558 Fit      -0.011462
 3559 Fit      -0.010026
 3560 Fit      -0.008034
 3561 Fit      -0.005557
 3562 Fit      -0.002947
 3563 Fit      -0.003454
 3564 Fit      -0.004947
 3565 Fit      -0.007078
 3566 Fit      -0.009215
 3567 Fit      -0.010912
 3568 Fit      -0.012035
 3569 Fit      -0.012650
 3570 Fit      -0.012916
 3571 Fit      -0.012984
 3572 Fit      -0.012916
 3573 Fit      -0.012650
 3574 Fit      -0.012036
 3575 Fit      -0.010913
 3576 Fit      -0.009215
 3577 Fit      -0.007078
 3578 Fit      -0.004948
 3579 Fit      -0.003454
 3580 Fit      -0.006026
 3581 Fit      -0.006692
 3582 Fit      -0.008368
 3583 Fit      -0.010226
 3584 Fit      -0.011588
 3585 Fit      -0.012298
 3586 Fit      -0.012501
 3587 Fit      -0.012298
 3588 Fit      -0.011588
 3589 Fit      -0.010226
 3590 Fit      -0.008368
 3591 Fit      -0.006692
 3592 Fit      -0.008464
 3593 Fit      -0.009438
 3594 Fit      -0.011021
 3595 Fit      -0.011635
 3596 Fit      -0.011021
 3597 Fit      -0.009438
 3598 Fit      -0.010313
 3599 Fit       0.008282
 3600 Fit       0.007236
 3601 Fit       0.007659
 3602 Fit       0.007690
 3603 Fit       0.006742
 3604 Fit       0.005844
 3605 Fit       0.005153
 3606 Fit       0.005430
 3607 Fit       0.007272
 3608 Fit       0.006551
 3609 Fit       0.005765
 3610 Fit       0.004816
 3611 Fit       0.003720
 3612 Fit       0.002700
 3613 Fit       0.007476
 3614 Fit       0.006857
 3615 Fit       0.006281
 3616 Fit       0.005612
 3617 Fit       0.004746
 3618 Fit       0.003614
 3619 Fit       0.002192
 3620 Fit       0.000546
 3621 Fit       0.006932
 3622 Fit       0.006444
 3623 Fit       0.005946
 3624 Fit       0.005328
 3625 Fit       0.004496
 3626 Fit       0.003371
 3627 Fit       0.001880
 3628 Fit      -0.000042
 3629 Fit       0.006967
 3630 Fit       0.006490
 3631 Fit       0.006084
 3632 Fit       0.005637
 3633 Fit       0.005061
 3634 Fit       0.004280
 3635 Fit       0.003219
 3636 Fit       0.001796
 3637 Fit      -0.000086
 3638 Fit      -0.002553
 3639 Fit       0.006351
 3640 Fit       0.005959
 3641 Fit       0.005562
 3642 Fit       0.005067
 3643 Fit       0.004397
 3644 Fit       0.003478
 3645 Fit       0.002227
 3646 Fit       0.000546
 3647 Fit      -0.001704
 3648 Fit       0.006192
 3649 Fit       0.005789
 3650 Fit       0.005415
 3651 Fit       0.004978
 3652 Fit       0.004404
 3653 Fit       0.003624
 3654 Fit       0.002563
 3655 Fit       0.001134
 3656 Fit      -0.000778
 3657 Fit      -0.003345
 3658 Fit       0.005523
 3659 Fit       0.005136
 3660 Fit       0.004702
 3661 Fit       0.004148
 3662 Fit       0.003407
 3663 Fit       0.002407
 3664 Fit       0.001066
 3665 Fit      -0.000723
 3666 Fit      -0.003117
 3667 Fit       0.005094
 3668 Fit       0.004652
 3669 Fit       0.004144
 3670 Fit       0.003491
 3671 Fit       0.002621
 3672 Fit       0.001452
 3673 Fit      -0.000117
 3674 Fit      -0.002220
 3675 Fit      -0.005065
 3676 Fit       0.003993
 3677 Fit       0.003342
 3678 Fit       0.002497
 3679 Fit       0.001370
 3680 Fit      -0.000145
 3681 Fit      -0.002183
 3682 Fit      -0.004948
 3683 Fit       0.003228
 3684 Fit       0.002395
 3685 Fit       0.001314
 3686 Fit      -0.000118
 3687 Fit      -0.002032
 3688 Fit      -0.004609
 3689 Fit       0.001868
 3690 Fit       0.000584
 3691 Fit      -0.001115
 3692 Fit      -0.003395
 3693 Fit      -0.006480
 3694 Fit       0.013384
 3695 Fit       0.012975
 3696 Fit       0.011820
 3697 Fit       0.011016
 3698 Fit       0.014430
 3699 Fit       0.012742
 3700 Fit       0.011720
 3701 Fit       0.010830
 3702 Fit       0.010109
 3703 Fit       0.015345
 3704 Fit       0.013926
 3705 Fit       0.012595
 3706 Fit       0.011663
 3707 Fit       0.010805
 3708 Fit       0.010016
 3709 Fit       0.009339
 3710 Fit       0.016408
 3711 Fit       0.014889
 3712 Fit       0.013645
 3713 Fit       0.012465
 3714 Fit       0.011597
 3715 Fit       0.010778
 3716 Fit       0.009994
 3717 Fit       0.009259
 3718 Fit       0.008628
 3719 Fit       0.016053
 3720 Fit       0.014594
 3721 Fit       0.013435
 3722 Fit       0.012302
 3723 Fit       0.011507
 3724 Fit       0.010750
 3725 Fit       0.010008
 3726 Fit       0.009286
 3727 Fit       0.008610
 3728 Fit       0.008039
 3729 Fit       0.015623
 3730 Fit       0.014248
 3731 Fit       0.013187
 3732 Fit       0.012073
 3733 Fit       0.011314
 3734 Fit       0.010586
 3735 Fit       0.009865
 3736 Fit       0.009150
 3737 Fit       0.008461
 3738 Fit       0.007845
 3739 Fit       0.015318
 3740 Fit       0.013943
 3741 Fit       0.012918
 3742 Fit       0.011758
 3743 Fit       0.011051
 3744 Fit       0.010368
 3745 Fit       0.009686
 3746 Fit       0.009003
 3747 Fit       0.008332
 3748 Fit       0.007706
 3749 Fit       0.014757
 3750 Fit       0.013483
 3751 Fit       0.012539
 3752 Fit       0.011349
 3753 Fit       0.010690
 3754 Fit       0.010047
 3755 Fit       0.009401
 3756 Fit       0.008748
 3757 Fit       0.008102
 3758 Fit       0.007490
 3759 Fit       0.014066
 3760 Fit       0.012926
 3761 Fit       0.012069
 3762 Fit       0.010852
 3763 Fit       0.010220
 3764 Fit       0.009596
 3765 Fit       0.008964
 3766 Fit       0.008325
 3767 Fit       0.007693
 3768 Fit       0.007098
 3769 Fit       0.013349
 3770 Fit       0.012322
 3771 Fit       0.011530
 3772 Fit       0.010284
 3773 Fit       0.009677
 3774 Fit       0.009070
 3775 Fit       0.008450
 3776 Fit       0.007825
 3777 Fit       0.007215
 3778 Fit       0.012510
 3779 Fit       0.011635
 3780 Fit       0.010919
 3781 Fit       0.009678
 3782 Fit       0.009111
 3783 Fit       0.008535
 3784 Fit       0.007948
 3785 Fit       0.007362
 3786 Fit       0.011545
 3787 Fit       0.010869
 3788 Fit       0.010255
 3789 Fit       0.009085
 3790 Fit       0.008531
 3791 Fit       0.007966
 3792 Fit       0.010190
 3793 Fit       0.009635
 3794 Fit       0.007579
 3795 Fit       0.007115
 3796 Fit       0.006637
 3797 Fit       0.006137
 3798 Fit       0.005601
 3799 Fit       0.005009
 3800 Fit       0.004332
 3801 Fit       0.003533
 3802 Fit       0.002563
 3803 Fit       0.001363
 3804 Fit      -0.000136
 3805 Fit      -0.002010
 3806 Fit      -0.004331
 3807 Fit       0.009015
 3808 Fit       0.008501
 3809 Fit       0.008036
 3810 Fit       0.007264
 3811 Fit       0.006816
 3812 Fit       0.006339
 3813 Fit       0.005817
 3814 Fit       0.005228
 3815 Fit       0.004542
 3816 Fit       0.003721
 3817 Fit       0.002722
 3818 Fit       0.001491
 3819 Fit      -0.000022
 3820 Fit      -0.001858
 3821 Fit      -0.004020
 3822 Fit       0.008652
 3823 Fit       0.008143
 3824 Fit       0.007698
 3825 Fit       0.006961
 3826 Fit       0.006524
 3827 Fit       0.006029
 3828 Fit       0.005456
 3829 Fit       0.004775
 3830 Fit       0.003951
 3831 Fit       0.002945
 3832 Fit       0.001720
 3833 Fit       0.000256
 3834 Fit      -0.001422
 3835 Fit      -0.003195
 3836 Fit      -0.004784
 3837 Fit       0.008063
 3838 Fit       0.007721
 3839 Fit       0.007356
 3840 Fit       0.006571
 3841 Fit       0.006123
 3842 Fit       0.005558
 3843 Fit       0.004850
 3844 Fit       0.003969
 3845 Fit       0.002886
 3846 Fit       0.001601
 3847 Fit       0.000190
 3848 Fit      -0.001136
 3849 Fit      -0.001974
 3850 Fit      -0.001808
 3851 Fit      -0.000341
 3852 Fit       0.002098
 3853 Fit       0.004600
 3854 Fit       0.006290
 3855 Fit       0.006995
 3856 Fit       0.007089
 3857 Fit       0.006904
 3858 Fit       0.006013
 3859 Fit       0.005500
 3860 Fit       0.004720
 3861 Fit       0.003679
 3862 Fit       0.002438
 3863 Fit       0.001240
 3864 Fit       0.000622
 3865 Fit       0.001191
 3866 Fit       0.002916
 3867 Fit       0.004803
 3868 Fit       0.005915
 3869 Fit       0.006211
 3870 Fit       0.005215
 3871 Fit       0.004479
 3872 Fit       0.003269
 3873 Fit       0.002606
 3874 Fit       0.003586
 3875 Fit       0.004972
 3876 Fit       0.004105
 3877 Fit       0.008939
 3878 Fit       0.010179
 3879 Fit       0.009568
 3880 Fit       0.008209
 3881 Fit       0.007441
 3882 Fit       0.008209
 3883 Fit       0.009568
 3884 Fit       0.011245
 3885 Fit       0.010952
 3886 Fit       0.010115
 3887 Fit       0.008847
 3888 Fit       0.007362
 3889 Fit       0.006093
 3890 Fit       0.005583
 3891 Fit       0.006093
 3892 Fit       0.007362
 3893 Fit       0.008847
 3894 Fit       0.010115
 3895 Fit       0.010952
 3896 Fit       0.012221
 3897 Fit       0.012029
 3898 Fit       0.011476
 3899 Fit       0.010603
 3900 Fit       0.009442
 3901 Fit       0.008010
 3902 Fit       0.006393
 3903 Fit       0.004825
 3904 Fit       0.003658
 3905 Fit       0.003224
 3906 Fit       0.003658
 3907 Fit       0.004825
 3908 Fit       0.006393
 3909 Fit       0.008010
 3910 Fit       0.009442
 3911 Fit       0.010603
 3912 Fit       0.011476
 3913 Fit       0.012029
 3914 Fit       0.013192
 3915 Fit       0.013030
 3916 Fit       0.012561
 3917 Fit       0.011831
 3918 Fit       0.010886
 3919 Fit       0.009727
 3920 Fit       0.008300
 3921 Fit       0.006576
 3922 Fit       0.004643
 3923 Fit       0.002730
 3924 Fit       0.001163
 3925 Fit       0.001163
 3926 Fit       0.002730
 3927 Fit       0.004643
 3928 Fit       0.006576
 3929 Fit       0.008300
 3930 Fit       0.009727
 3931 Fit       0.010886
 3932 Fit       0.011831
 3933 Fit       0.012561
 3934 Fit       0.013030
 3935 Fit       0.014261
 3936 Fit       0.014101
 3937 Fit       0.013632
 3938 Fit       0.012901
 3939 Fit       0.011991
 3940 Fit       0.010964
 3941 Fit       0.009775
 3942 Fit       0.008286
 3943 Fit       0.006384
 3944 Fit       0.004092
 3945 Fit       0.004092
 3946 Fit       0.006384
 3947 Fit       0.008286
 3948 Fit       0.009775
 3949 Fit       0.010964
 3950 Fit       0.011991
 3951 Fit       0.012901
 3952 Fit       0.013632
 3953 Fit       0.014101
 3954 Fit       0.015556
 3955 Fit       0.015396
 3956 Fit       0.014907
 3957 Fit       0.008492
 3958 Fit       0.006446
 3959 Fit       0.003793
 3960 Fit       0.003793
 3961 Fit       0.006446
 3962 Fit       0.008492
 3963 Fit       0.014907
 3964 Fit       0.015396
 3965 Fit       0.007659
 3966 Fit       0.007236
 3967 Fit       0.008282
 3968 Fit       0.005429
 3969 Fit       0.005153
 3970 Fit       0.005844
 3971 Fit       0.006742
 3972 Fit       0.007690
 3973 Fit       0.002700
 3974 Fit       0.003720
 3975 Fit       0.004816
 3976 Fit       0.005765
 3977 Fit       0.006551
 3978 Fit       0.007272
 3979 Fit       0.000546
 3980 Fit       0.002192
 3981 Fit       0.003614
 3982 Fit       0.004746
 3983 Fit       0.005612
 3984 Fit       0.006281
 3985 Fit       0.006857
 3986 Fit       0.007476
 3987 Fit      -0.000042
 3988 Fit       0.001880
 3989 Fit       0.003371
 3990 Fit       0.004496
 3991 Fit       0.005328
 3992 Fit       0.005946
 3993 Fit       0.006444
 3994 Fit       0.006932
 3995 Fit      -0.002553
 3996 Fit      -0.000086
 3997 Fit       0.001796
 3998 Fit       0.003219
 3999 Fit       0.004280
 4000 Fit       0.005061
 4001 Fit       0.005637
 4002 Fit       0.006084
 4003 Fit       0.006490
 4004 Fit       0.006967
 4005 Fit      -0.001704
 4006 Fit       0.000546
 4007 Fit       0.002227
 4008 Fit       0.003478
 4009 Fit       0.004397
 4010 Fit       0.005067
 4011 Fit       0.005562
 4012 Fit       0.005959
 4013 Fit       0.006351
 4014 Fit      -0.003345
 4015 Fit      -0.000778
 4016 Fit       0.001134
 4017 Fit       0.002563
 4018 Fit       0.003624
 4019 Fit       0.004404
 4020 Fit       0.004978
 4021 Fit       0.005415
 4022 Fit       0.005789
 4023 Fit       0.006192
 4024 Fit      -0.003117
 4025 Fit      -0.000723
 4026 Fit       0.001066
 4027 Fit       0.002407
 4028 Fit       0.003406
 4029 Fit       0.004148
 4030 Fit       0.004702
 4031 Fit       0.005136
 4032 Fit       0.005523
 4033 Fit      -0.005065
 4034 Fit      -0.002220
 4035 Fit      -0.000117
 4036 Fit       0.001451
 4037 Fit       0.002621
 4038 Fit       0.003491
 4039 Fit       0.004143
 4040 Fit       0.004652
 4041 Fit       0.005094
 4042 Fit      -0.004948
 4043 Fit      -0.002183
 4044 Fit      -0.000145
 4045 Fit       0.001369
 4046 Fit       0.002497
 4047 Fit       0.003342
 4048 Fit       0.003993
 4049 Fit      -0.004609
 4050 Fit      -0.002033
 4051 Fit      -0.000118
 4052 Fit       0.001314
 4053 Fit       0.002394
 4054 Fit       0.003228
 4055 Fit      -0.006480
 4056 Fit      -0.003395
 4057 Fit      -0.001115
 4058 Fit       0.000584
 4059 Fit       0.001867
 4060 Fit       0.013383
 4061 Fit       0.012974
 4062 Fit       0.014430
 4063 Fit       0.011016
 4064 Fit       0.011820
 4065 Fit       0.012742
 4066 Fit       0.013926
 4067 Fit       0.015345
 4068 Fit       0.010109
 4069 Fit       0.010830
 4070 Fit       0.011720
 4071 Fit       0.012595
 4072 Fit       0.013645
 4073 Fit       0.014888
 4074 Fit       0.016407
 4075 Fit       0.009339
 4076 Fit       0.010015
 4077 Fit       0.010804
 4078 Fit       0.011663
 4079 Fit       0.012465
 4080 Fit       0.013435
 4081 Fit       0.014594
 4082 Fit       0.016053
 4083 Fit       0.008628
 4084 Fit       0.009259
 4085 Fit       0.009994
 4086 Fit       0.010778
 4087 Fit       0.011596
 4088 Fit       0.012302
 4089 Fit       0.013187
 4090 Fit       0.014248
 4091 Fit       0.015623
 4092 Fit       0.008039
 4093 Fit       0.008610
 4094 Fit       0.009286
 4095 Fit       0.010008
 4096 Fit       0.010749
 4097 Fit       0.011507
 4098 Fit       0.012073
 4099 Fit       0.012918
 4100 Fit       0.013943
 4101 Fit       0.015318
 4102 Fit       0.007845
 4103 Fit       0.008461
 4104 Fit       0.009150
 4105 Fit       0.009865
 4106 Fit       0.010585
 4107 Fit       0.011313
 4108 Fit       0.011758
 4109 Fit       0.012539
 4110 Fit       0.013483
 4111 Fit       0.014757
 4112 Fit       0.007706
 4113 Fit       0.008331
 4114 Fit       0.009003
 4115 Fit       0.009686
 4116 Fit       0.010368
 4117 Fit       0.011051
 4118 Fit       0.011349
 4119 Fit       0.012069
 4120 Fit       0.012926
 4121 Fit       0.014066
 4122 Fit       0.007490
 4123 Fit       0.008102
 4124 Fit       0.008748
 4125 Fit       0.009401
 4126 Fit       0.010047
 4127 Fit       0.010689
 4128 Fit       0.010852
 4129 Fit       0.011530
 4130 Fit       0.012322
 4131 Fit       0.013349
 4132 Fit       0.007098
 4133 Fit       0.007693
 4134 Fit       0.008325
 4135 Fit       0.008964
 4136 Fit       0.009596
 4137 Fit       0.010220
 4138 Fit       0.010284
 4139 Fit       0.010919
 4140 Fit       0.011635
 4141 Fit       0.012510
 4142 Fit       0.007215
 4143 Fit       0.007825
 4144 Fit       0.008450
 4145 Fit       0.009070
 4146 Fit       0.009677
 4147 Fit       0.009678
 4148 Fit       0.010255
 4149 Fit       0.010869
 4150 Fit       0.011546
 4151 Fit       0.007362
 4152 Fit       0.007948
 4153 Fit       0.008535
 4154 Fit       0.009110
 4155 Fit       0.009085
 4156 Fit       0.009635
 4157 Fit       0.010190
 4158 Fit       0.007966
 4159 Fit       0.008531
 4160 Fit       0.007579
 4161 Fit       0.008036
 4162 Fit       0.008501
 4163 Fit       0.009015
 4164 Fit      -0.004331
 4165 Fit      -0.002010
 4166 Fit      -0.000136
 4167 Fit       0.001363
 4168 Fit       0.002562
 4169 Fit       0.003532
 4170 Fit       0.004332
 4171 Fit       0.005009
 4172 Fit       0.005601
 4173 Fit       0.006137
 4174 Fit       0.006637
 4175 Fit       0.007115
 4176 Fit       0.007264
 4177 Fit       0.007699
 4178 Fit       0.008143
 4179 Fit       0.008652
 4180 Fit      -0.004021
 4181 Fit      -0.001859
 4182 Fit      -0.000023
 4183 Fit       0.001491
 4184 Fit       0.002721
 4185 Fit       0.003721
 4186 Fit       0.004541
 4187 Fit       0.005228
 4188 Fit       0.005817
 4189 Fit       0.006339
 4190 Fit       0.006816
 4191 Fit       0.006961
 4192 Fit       0.007356
 4193 Fit       0.007721
 4194 Fit       0.008063
 4195 Fit      -0.004784
 4196 Fit      -0.003196
 4197 Fit      -0.001422
 4198 Fit       0.000256
 4199 Fit       0.001720
 4200 Fit       0.002945
 4201 Fit       0.003951
 4202 Fit       0.004775
 4203 Fit       0.005456
 4204 Fit       0.006029
 4205 Fit       0.006524
 4206 Fit       0.006571
 4207 Fit       0.006904
 4208 Fit       0.007089
 4209 Fit       0.006995
 4210 Fit       0.006291
 4211 Fit       0.004600
 4212 Fit       0.002099
 4213 Fit      -0.000341
 4214 Fit      -0.001808
 4215 Fit      -0.001974
 4216 Fit      -0.001136
 4217 Fit       0.000190
 4218 Fit       0.001601
 4219 Fit       0.002885
 4220 Fit       0.003969
 4221 Fit       0.004850
 4222 Fit       0.005558
 4223 Fit       0.006123
 4224 Fit       0.006013
 4225 Fit       0.006211
 4226 Fit       0.005915
 4227 Fit       0.004803
 4228 Fit       0.002916
 4229 Fit       0.001191
 4230 Fit       0.000621
 4231 Fit       0.001240
 4232 Fit       0.002437
 4233 Fit       0.003679
 4234 Fit       0.004720
 4235 Fit       0.005500
 4236 Fit       0.005214
 4237 Fit       0.004972
 4238 Fit       0.003586
 4239 Fit       0.002605
 4240 Fit       0.003269
 4241 Fit       0.004479
 4242 Fit       0.004105
 -----------------------------------------------------------------
 Leave Link  602 at Thu Nov  2 13:05:20 2023, MaxMem=   134217728 cpu:               0.2 elap:               0.2

 Test job not archived.
 1\1\GINC-LAC-356\FOpt\RHF\6-31G(d)\C3H7Cl1\RAHNAMOU\02-Nov-2023\0\\#HF
 /6-31G* SCF=tight Pop=MK iop(6/33=2) iop(6/42=6) opt\\mobley_1231151\\
 0,1\C,0.8610861911,-0.5470094092,0.3864733016\C,0.9997138366,-0.285400
 2233,1.8780767671\C,1.197027482,1.1846818965,2.2134977902\Cl,2.3971133
 063,-1.2434617139,2.5292220255\H,0.7250739416,-1.6021122302,0.18493138
 35\H,-0.0036839763,-0.0102784757,0.0069007028\H,1.7395529009,-0.204751
 7678,-0.1483510985\H,0.1409237767,-0.674261819,2.4045581687\H,1.294506
 5935,1.3329721039,3.2816048337\H,0.3379216011,1.7507060656,1.864860096
 1\H,2.0847643465,1.5749155731,1.7292260293\\Version=ES64L-G16RevC.01\S
 tate=1-A\HF=-577.169364\RMSD=3.207e-09\RMSF=1.082e-04\Dipole=-0.730607
 6,0.548799,-0.3858349\Quadrupole=0.1966654,-0.2156281,0.0189627,0.4991
 915,-0.4227107,0.5590277\PG=C01 [X(C3H7Cl1)]\\@


 WISDOM IS KNOWING WHAT TO DO,
 SKILL IS KNOWING HOW TO DO IT,
 AND VIRTUE IS NOT DOING IT.
 Job cpu time:       0 days  0 hours  0 minutes 10.0 seconds.
 Elapsed time:       0 days  0 hours  0 minutes 10.1 seconds.
 File lengths (MBytes):  RWF=    272 Int=      0 D2E=      0 Chk=     32 Scr=     32
 Normal termination of Gaussian 16 at Thu Nov  2 13:05:20 2023.
