 Entering Gaussian System, Link 0=/opt/software/Gaussian/g16-AVX2-C.01/g16/g16
 Input=mobley_1036761.com
 Output=mobley_1036761.log
 Initial command:
 /opt/software/Gaussian/g16-AVX2-C.01/g16/l1.exe "/mnt/gs21/scratch/rahnamou/Gau-6182.inp" -scrdir="/mnt/gs21/scratch/rahnamou/"
 Entering Link 1 = /opt/software/Gaussian/g16-AVX2-C.01/g16/l1.exe PID=      6191.
  
 Copyright (c) 1988-2019, Gaussian, Inc.  All Rights Reserved.
  
 This is part of the Gaussian(R) 16 program.  It is based on
 the Gaussian(R) 09 system (copyright 2009, Gaussian, Inc.),
 the Gaussian(R) 03 system (copyright 2003, Gaussian, Inc.),
 the Gaussian(R) 98 system (copyright 1998, Gaussian, Inc.),
 the Gaussian(R) 94 system (copyright 1995, Gaussian, Inc.),
 the Gaussian 92(TM) system (copyright 1992, Gaussian, Inc.),
 the Gaussian 90(TM) system (copyright 1990, Gaussian, Inc.),
 the Gaussian 88(TM) system (copyright 1988, Gaussian, Inc.),
 the Gaussian 86(TM) system (copyright 1986, Carnegie Mellon
 University), and the Gaussian 82(TM) system (copyright 1983,
 Carnegie Mellon University). Gaussian is a federally registered
 trademark of Gaussian, Inc.
  
 This software contains proprietary and confidential information,
 including trade secrets, belonging to Gaussian, Inc.
  
 This software is provided under written license and may be
 used, copied, transmitted, or stored only in accord with that
 written license.
  
 The following legend is applicable only to US Government
 contracts under FAR:
  
                    RESTRICTED RIGHTS LEGEND
  
 Use, reproduction and disclosure by the US Government is
 subject to restrictions as set forth in subparagraphs (a)
 and (c) of the Commercial Computer Software - Restricted
 Rights clause in FAR 52.227-19.
  
 Gaussian, Inc.
 340 Quinnipiac St., Bldg. 40, Wallingford CT 06492
  
  
 ---------------------------------------------------------------
 Warning -- This program may not be used in any manner that
 competes with the business of Gaussian, Inc. or will provide
 assistance to any competitor of Gaussian, Inc.  The licensee
 of this program is prohibited from giving any competitor of
 Gaussian, Inc. access to this program.  By using this program,
 the user acknowledges that Gaussian, Inc. is engaged in the
 business of creating and licensing software in the field of
 computational chemistry and represents and warrants to the
 licensee that it is not a competitor of Gaussian, Inc. and that
 it will not use this program in any manner prohibited above.
 ---------------------------------------------------------------
  

 Cite this work as:
 Gaussian 16, Revision C.01,
 M. J. Frisch, G. W. Trucks, H. B. Schlegel, G. E. Scuseria, 
 M. A. Robb, J. R. Cheeseman, G. Scalmani, V. Barone, 
 G. A. Petersson, H. Nakatsuji, X. Li, M. Caricato, A. V. Marenich, 
 J. Bloino, B. G. Janesko, R. Gomperts, B. Mennucci, H. P. Hratchian, 
 J. V. Ortiz, A. F. Izmaylov, J. L. Sonnenberg, D. Williams-Young, 
 F. Ding, F. Lipparini, F. Egidi, J. Goings, B. Peng, A. Petrone, 
 T. Henderson, D. Ranasinghe, V. G. Zakrzewski, J. Gao, N. Rega, 
 G. Zheng, W. Liang, M. Hada, M. Ehara, K. Toyota, R. Fukuda, 
 J. Hasegawa, M. Ishida, T. Nakajima, Y. Honda, O. Kitao, H. Nakai, 
 T. Vreven, K. Throssell, J. A. Montgomery, Jr., J. E. Peralta, 
 F. Ogliaro, M. J. Bearpark, J. J. Heyd, E. N. Brothers, K. N. Kudin, 
 V. N. Staroverov, T. A. Keith, R. Kobayashi, J. Normand, 
 K. Raghavachari, A. P. Rendell, J. C. Burant, S. S. Iyengar, 
 J. Tomasi, M. Cossi, J. M. Millam, M. Klene, C. Adamo, R. Cammi, 
 J. W. Ochterski, R. L. Martin, K. Morokuma, O. Farkas, 
 J. B. Foresman, and D. J. Fox, Gaussian, Inc., Wallingford CT, 2019.
 
 ******************************************
 Gaussian 16:  ES64L-G16RevC.01  3-Jul-2019
                 2-Nov-2023 
 ******************************************
 %chk=mobley_1036761.chk
 %mem=1GB
 %NProcShared=1
 Will use up to    1 processors via shared memory.
 -------------------------------------------------------
 #HF/6-31G* SCF=tight Pop=MK iop(6/33=2) iop(6/42=6) opt
 -------------------------------------------------------
 1/18=20,19=15,38=1/1,3;
 2/9=110,12=2,17=6,18=5,40=1/2;
 3/5=1,6=6,7=1,11=9,25=1,30=1,71=1/1,2,3;
 4//1;
 5/5=2,32=2,38=5/2;
 6/7=2,8=2,9=2,10=2,15=8,20=1,28=1,33=2,42=6/1,2;
 7//1,2,3,16;
 1/18=20,19=15/3(2);
 2/9=110/2;
 99//99;
 2/9=110/2;
 3/5=1,6=6,7=1,11=9,25=1,30=1,71=1/1,2,3;
 4/5=5,16=3,69=1/1;
 5/5=2,32=2,38=5/2;
 7//1,2,3,16;
 1/18=20,19=15/3(-5);
 2/9=110/2;
 6/7=2,8=2,9=2,10=2,15=8,19=2,20=1,28=1,33=2,42=6/1,2;
 99/9=1/99;
 --------------
 mobley_1036761
 --------------
 Symbolic Z-matrix:
 Charge =  0 Multiplicity = 1
 C                     0.564     0.544    -0.766 
 C                     0.351    -0.116    -2.126 
 C                     1.041     0.663    -3.244 
 C                     0.598     2.13     -3.259 
 C                     0.824     2.789    -1.894 
 C                     0.134     2.008    -0.777 
 N                     1.331     2.86     -4.291 
 H                     1.623     0.477    -0.491 
 H                     0.        0.        0. 
 H                     0.734    -1.142    -2.101 
 H                    -0.724    -0.181    -2.336 
 H                     2.128     0.596    -3.107 
 H                     0.813     0.189    -4.207 
 H                    -0.467     2.177    -3.504 
 H                     1.899     2.85     -1.676 
 H                     0.443     3.818    -1.902 
 H                     0.365     2.467     0.19 
 H                    -0.954     2.069    -0.909 
 H                     0.992     2.813    -5.226 
 H                     2.239     3.201    -4.066 
 

 GradGradGradGradGradGradGradGradGradGradGradGradGradGradGradGradGradGrad
 Berny optimization.
 Initialization pass.
                           ----------------------------
                           !    Initial Parameters    !
                           ! (Angstroms and Degrees)  !
 --------------------------                            --------------------------
 ! Name  Definition              Value          Derivative Info.                !
 --------------------------------------------------------------------------------
 ! R1    R(1,2)                  1.5266         estimate D2E/DX2                !
 ! R2    R(1,6)                  1.5259         estimate D2E/DX2                !
 ! R3    R(1,8)                  1.0962         estimate D2E/DX2                !
 ! R4    R(1,9)                  1.0958         estimate D2E/DX2                !
 ! R5    R(2,3)                  1.5274         estimate D2E/DX2                !
 ! R6    R(2,10)                 1.0954         estimate D2E/DX2                !
 ! R7    R(2,11)                 1.0972         estimate D2E/DX2                !
 ! R8    R(3,4)                  1.5325         estimate D2E/DX2                !
 ! R9    R(3,12)                 1.0976         estimate D2E/DX2                !
 ! R10   R(3,13)                 1.0973         estimate D2E/DX2                !
 ! R11   R(4,5)                  1.5325         estimate D2E/DX2                !
 ! R12   R(4,7)                  1.4612         estimate D2E/DX2                !
 ! R13   R(4,14)                 1.0938         estimate D2E/DX2                !
 ! R14   R(5,6)                  1.5277         estimate D2E/DX2                !
 ! R15   R(5,15)                 1.0986         estimate D2E/DX2                !
 ! R16   R(5,16)                 1.0973         estimate D2E/DX2                !
 ! R17   R(6,17)                 1.095          estimate D2E/DX2                !
 ! R18   R(6,18)                 1.0977         estimate D2E/DX2                !
 ! R19   R(7,19)                 0.9957         estimate D2E/DX2                !
 ! R20   R(7,20)                 0.9957         estimate D2E/DX2                !
 ! A1    A(2,1,6)              111.6573         estimate D2E/DX2                !
 ! A2    A(2,1,8)              109.3817         estimate D2E/DX2                !
 ! A3    A(2,1,9)              109.6516         estimate D2E/DX2                !
 ! A4    A(6,1,8)              109.4327         estimate D2E/DX2                !
 ! A5    A(6,1,9)              109.6518         estimate D2E/DX2                !
 ! A6    A(8,1,9)              106.9493         estimate D2E/DX2                !
 ! A7    A(1,2,3)              111.6266         estimate D2E/DX2                !
 ! A8    A(1,2,10)             109.6218         estimate D2E/DX2                !
 ! A9    A(1,2,11)             109.4391         estimate D2E/DX2                !
 ! A10   A(3,2,10)             109.6609         estimate D2E/DX2                !
 ! A11   A(3,2,11)             109.4339         estimate D2E/DX2                !
 ! A12   A(10,2,11)            106.9434         estimate D2E/DX2                !
 ! A13   A(2,3,4)              111.3954         estimate D2E/DX2                !
 ! A14   A(2,3,12)             108.9585         estimate D2E/DX2                !
 ! A15   A(2,3,13)             109.1602         estimate D2E/DX2                !
 ! A16   A(4,3,12)             110.2379         estimate D2E/DX2                !
 ! A17   A(4,3,13)             110.1731         estimate D2E/DX2                !
 ! A18   A(12,3,13)            106.7946         estimate D2E/DX2                !
 ! A19   A(3,4,5)              111.1178         estimate D2E/DX2                !
 ! A20   A(3,4,7)              109.8848         estimate D2E/DX2                !
 ! A21   A(3,4,14)             108.952          estimate D2E/DX2                !
 ! A22   A(5,4,7)              109.8924         estimate D2E/DX2                !
 ! A23   A(5,4,14)             108.9419         estimate D2E/DX2                !
 ! A24   A(7,4,14)             107.9842         estimate D2E/DX2                !
 ! A25   A(4,5,6)              111.3961         estimate D2E/DX2                !
 ! A26   A(4,5,15)             110.1776         estimate D2E/DX2                !
 ! A27   A(4,5,16)             110.2154         estimate D2E/DX2                !
 ! A28   A(6,5,15)             108.9819         estimate D2E/DX2                !
 ! A29   A(6,5,16)             109.1426         estimate D2E/DX2                !
 ! A30   A(15,5,16)            106.8065         estimate D2E/DX2                !
 ! A31   A(1,6,5)              111.6228         estimate D2E/DX2                !
 ! A32   A(1,6,17)             109.6545         estimate D2E/DX2                !
 ! A33   A(1,6,18)             109.4817         estimate D2E/DX2                !
 ! A34   A(5,6,17)             109.6402         estimate D2E/DX2                !
 ! A35   A(5,6,18)             109.3508         estimate D2E/DX2                !
 ! A36   A(17,6,18)            106.9771         estimate D2E/DX2                !
 ! A37   A(4,7,19)             117.9592         estimate D2E/DX2                !
 ! A38   A(4,7,20)             117.9666         estimate D2E/DX2                !
 ! A39   A(19,7,20)            122.6066         estimate D2E/DX2                !
 ! D1    D(6,1,2,3)             54.3686         estimate D2E/DX2                !
 ! D2    D(6,1,2,10)           176.0764         estimate D2E/DX2                !
 ! D3    D(6,1,2,11)           -66.9283         estimate D2E/DX2                !
 ! D4    D(8,1,2,3)            -66.9079         estimate D2E/DX2                !
 ! D5    D(8,1,2,10)            54.8            estimate D2E/DX2                !
 ! D6    D(8,1,2,11)           171.7953         estimate D2E/DX2                !
 ! D7    D(9,1,2,3)            176.1058         estimate D2E/DX2                !
 ! D8    D(9,1,2,10)           -62.1864         estimate D2E/DX2                !
 ! D9    D(9,1,2,11)            54.8089         estimate D2E/DX2                !
 ! D10   D(2,1,6,5)            -54.3695         estimate D2E/DX2                !
 ! D11   D(2,1,6,17)          -176.0711         estimate D2E/DX2                !
 ! D12   D(2,1,6,18)            66.8492         estimate D2E/DX2                !
 ! D13   D(8,1,6,5)             66.8773         estimate D2E/DX2                !
 ! D14   D(8,1,6,17)           -54.8243         estimate D2E/DX2                !
 ! D15   D(8,1,6,18)          -171.904          estimate D2E/DX2                !
 ! D16   D(9,1,6,5)           -176.1066         estimate D2E/DX2                !
 ! D17   D(9,1,6,17)            62.1918         estimate D2E/DX2                !
 ! D18   D(9,1,6,18)           -54.8879         estimate D2E/DX2                !
 ! D19   D(1,2,3,4)            -54.7739         estimate D2E/DX2                !
 ! D20   D(1,2,3,12)            67.0575         estimate D2E/DX2                !
 ! D21   D(1,2,3,13)          -176.6605         estimate D2E/DX2                !
 ! D22   D(10,2,3,4)          -176.4592         estimate D2E/DX2                !
 ! D23   D(10,2,3,12)          -54.6277         estimate D2E/DX2                !
 ! D24   D(10,2,3,13)           61.6542         estimate D2E/DX2                !
 ! D25   D(11,2,3,4)            66.526          estimate D2E/DX2                !
 ! D26   D(11,2,3,12)         -171.6426         estimate D2E/DX2                !
 ! D27   D(11,2,3,13)          -55.3606         estimate D2E/DX2                !
 ! D28   D(2,3,4,5)             55.0579         estimate D2E/DX2                !
 ! D29   D(2,3,4,7)            176.8995         estimate D2E/DX2                !
 ! D30   D(2,3,4,14)           -64.9784         estimate D2E/DX2                !
 ! D31   D(12,3,4,5)           -66.029          estimate D2E/DX2                !
 ! D32   D(12,3,4,7)            55.8126         estimate D2E/DX2                !
 ! D33   D(12,3,4,14)          173.9346         estimate D2E/DX2                !
 ! D34   D(13,3,4,5)           176.3559         estimate D2E/DX2                !
 ! D35   D(13,3,4,7)           -61.8025         estimate D2E/DX2                !
 ! D36   D(13,3,4,14)           56.3195         estimate D2E/DX2                !
 ! D37   D(3,4,5,6)            -55.0614         estimate D2E/DX2                !
 ! D38   D(3,4,5,15)            66.0147         estimate D2E/DX2                !
 ! D39   D(3,4,5,16)          -176.3664         estimate D2E/DX2                !
 ! D40   D(7,4,5,6)           -176.8986         estimate D2E/DX2                !
 ! D41   D(7,4,5,15)           -55.8225         estimate D2E/DX2                !
 ! D42   D(7,4,5,16)            61.7964         estimate D2E/DX2                !
 ! D43   D(14,4,5,6)            64.981          estimate D2E/DX2                !
 ! D44   D(14,4,5,15)         -173.9429         estimate D2E/DX2                !
 ! D45   D(14,4,5,16)          -56.3241         estimate D2E/DX2                !
 ! D46   D(3,4,7,19)            83.2907         estimate D2E/DX2                !
 ! D47   D(3,4,7,20)           -83.2591         estimate D2E/DX2                !
 ! D48   D(5,4,7,19)          -154.14           estimate D2E/DX2                !
 ! D49   D(5,4,7,20)            39.3101         estimate D2E/DX2                !
 ! D50   D(14,4,7,19)          -35.4286         estimate D2E/DX2                !
 ! D51   D(14,4,7,20)          158.0216         estimate D2E/DX2                !
 ! D52   D(4,5,6,1)             54.7927         estimate D2E/DX2                !
 ! D53   D(4,5,6,17)           176.5026         estimate D2E/DX2                !
 ! D54   D(4,5,6,18)           -66.502          estimate D2E/DX2                !
 ! D55   D(15,5,6,1)           -66.9795         estimate D2E/DX2                !
 ! D56   D(15,5,6,17)           54.7304         estimate D2E/DX2                !
 ! D57   D(15,5,6,18)          171.7258         estimate D2E/DX2                !
 ! D58   D(16,5,6,1)           176.7209         estimate D2E/DX2                !
 ! D59   D(16,5,6,17)          -61.5692         estimate D2E/DX2                !
 ! D60   D(16,5,6,18)           55.4263         estimate D2E/DX2                !
 --------------------------------------------------------------------------------
 Trust Radius=3.00D-01 FncErr=1.00D-07 GrdErr=1.00D-07 EigMax=2.50D+02 EigMin=1.00D-04
 Number of steps in this run=    120 maximum allowed number of steps=    120.
 GradGradGradGradGradGradGradGradGradGradGradGradGradGradGradGradGradGrad

                          Input orientation:                          
 ---------------------------------------------------------------------
 Center     Atomic      Atomic             Coordinates (Angstroms)
 Number     Number       Type             X           Y           Z
 ---------------------------------------------------------------------
      1          6           0        0.564000    0.544000   -0.766000
      2          6           0        0.351000   -0.116000   -2.126000
      3          6           0        1.041000    0.663000   -3.244000
      4          6           0        0.598000    2.130000   -3.259000
      5          6           0        0.824000    2.789000   -1.894000
      6          6           0        0.134000    2.008000   -0.777000
      7          7           0        1.331000    2.860000   -4.291000
      8          1           0        1.623000    0.477000   -0.491000
      9          1           0        0.000000    0.000000    0.000000
     10          1           0        0.734000   -1.142000   -2.101000
     11          1           0       -0.724000   -0.181000   -2.336000
     12          1           0        2.128000    0.596000   -3.107000
     13          1           0        0.813000    0.189000   -4.207000
     14          1           0       -0.467000    2.177000   -3.504000
     15          1           0        1.899000    2.850000   -1.676000
     16          1           0        0.443000    3.818000   -1.902000
     17          1           0        0.365000    2.467000    0.190000
     18          1           0       -0.954000    2.069000   -0.909000
     19          1           0        0.992000    2.813000   -5.226000
     20          1           0        2.239000    3.201000   -4.066000
 ---------------------------------------------------------------------
                    Distance matrix (angstroms):
                    1          2          3          4          5
     1  C    0.000000
     2  C    1.526620   0.000000
     3  C    2.526296   1.527372   0.000000
     4  C    2.954928   2.527689   1.532502   0.000000
     5  C    2.525868   2.952385   2.527739   1.532508   0.000000
     6  C    1.525882   2.525523   2.952586   2.527945   1.527662
     7  N    4.286930   3.808438   2.450942   1.461237   2.451061
     8  H    1.096173   2.154729   2.819987   3.383025   2.819956
     9  H    1.095805   2.157900   3.470848   3.938983   3.470552
    10  H    2.157248   1.095441   2.158408   3.473535   3.937475
    11  H    2.156263   1.097247   2.156855   2.817860   3.378249
    12  H    2.815862   2.151054   1.097646   2.171902   2.825072
    13  H    3.468214   2.153376   1.097283   2.170809   3.479955
    14  H    3.350566   2.797473   2.152640   1.093828   2.152516
    15  H    2.815664   3.375790   2.824492   2.171840   1.098576
    16  H    3.467595   3.941446   3.480315   2.171363   1.097299
    17  H    2.156726   3.469285   3.937480   3.473249   2.158106
    18  H    2.156478   2.821053   3.377734   2.816900   2.156365
    19  H    5.022265   4.312763   2.924590   2.119154   3.336319
    20  H    4.555796   4.281429   2.924437   2.119238   2.624796
                    6          7          8          9         10
     6  C    0.000000
     7  N    3.808794   0.000000
     8  H    2.154734   4.494881   0.000000
     9  H    2.157255   5.325771   1.761459   0.000000
    10  H    3.469218   4.600925   2.450221   2.501424   0.000000
    11  H    2.821058   4.158453   3.057024   2.452312   1.761962
    12  H    3.376193   2.676333   2.666954   3.812748   2.444569
    13  H    3.941409   2.722062   3.814145   4.289002   2.492597
    14  H    2.797551   2.078139   4.041815   4.151558   3.798233
    15  H    2.152299   2.675995   2.666745   3.812831   4.180181
    16  H    2.153417   2.722798   3.813870   4.288470   4.972513
    17  H    1.095048   4.600757   2.450801   2.501083   4.290655
    18  H    1.097674   4.157503   3.057796   2.452990   3.818472
    19  H    4.601933   0.995668   5.317451   6.017317   5.047199
    20  H    4.083111   0.995676   4.536547   5.638429   4.998790
                   11         12         13         14         15
    11  H    0.000000
    12  H    3.054844   0.000000
    13  H    2.449471   1.762065   0.000000
    14  H    2.643943   3.064506   2.466729   0.000000
    15  H    4.062350   2.679686   3.829658   3.064714   0.000000
    16  H    4.188346   3.830474   4.315040   2.467263   1.762962
    17  H    3.818180   4.180792   4.972283   3.797626   2.445772
    18  H    2.674272   4.061977   4.187301   2.642510   3.055791
    19  H    4.501199   3.270435   2.820599   2.344880   3.664221
    20  H    4.817696   2.778134   3.335491   2.947347   2.439447
                   16         17         18         19         20
    16  H    0.000000
    17  H    2.491535   0.000000
    18  H    2.448808   1.762375   0.000000
    19  H    3.515736   5.463140   4.793427   0.000000
    20  H    2.879097   4.707884   4.630693   1.746755   0.000000
 Stoichiometry    C6H13N
 Framework group  C1[X(C6H13N)]
 Deg. of freedom    54
 Full point group                 C1      NOp   1
 Largest Abelian subgroup         C1      NOp   1
 Largest concise Abelian subgroup C1      NOp   1
                         Standard orientation:                         
 ---------------------------------------------------------------------
 Center     Atomic      Atomic             Coordinates (Angstroms)
 Number     Number       Type             X           Y           Z
 ---------------------------------------------------------------------
      1          6           0       -1.868244    0.015026   -0.289565
      2          6           0       -1.152887    1.275346    0.190462
      3          6           0        0.329848    1.255009   -0.175528
      4          6           0        1.017262   -0.011229    0.346647
      5          6           0        0.300231   -1.272398   -0.147218
      6          6           0       -1.182743   -1.249841    0.218881
      7          7           0        2.413486   -0.032302   -0.083851
      8          1           0       -1.888656    0.003383   -1.385486
      9          1           0       -2.910247    0.031053    0.049201
     10          1           0       -1.628943    2.158579   -0.249150
     11          1           0       -1.259054    1.363332    1.279010
     12          1           0        0.428670    1.318136   -1.266892
     13          1           0        0.815375    2.147485    0.238934
     14          1           0        1.001200    0.001099    1.440287
     15          1           0        0.397740   -1.361214   -1.237848
     16          1           0        0.764420   -2.166989    0.286721
     17          1           0       -1.678791   -2.131509   -0.200319
     18          1           0       -1.289054   -1.310596    1.309705
     19          1           0        3.076687    0.475847    0.457725
     20          1           0        2.615448   -0.373961   -0.997005
 ---------------------------------------------------------------------
 Rotational constants (GHZ):           4.2446018           2.2249329           1.6105383
 Standard basis: 6-31G(d) (6D, 7F)
 There are   131 symmetry adapted cartesian basis functions of A   symmetry.
 There are   131 symmetry adapted basis functions of A   symmetry.
   131 basis functions,   248 primitive gaussians,   131 cartesian basis functions
    28 alpha electrons       28 beta electrons
       nuclear repulsion energy       330.5778599851 Hartrees.
 NAtoms=   20 NActive=   20 NUniq=   20 SFac= 1.00D+00 NAtFMM=   60 NAOKFM=F Big=F
 Integral buffers will be    131072 words long.
 Raffenetti 1 integral format.
 Two-electron integral symmetry is turned on.
 One-electron integrals computed using PRISM.
 NBasis=   131 RedAO= T EigKep=  3.22D-03  NBF=   131
 NBsUse=   131 1.00D-06 EigRej= -1.00D+00 NBFU=   131
 ExpMin= 1.61D-01 ExpMax= 4.17D+03 ExpMxC= 6.27D+02 IAcc=3 IRadAn=         5 AccDes= 0.00D+00
 Harris functional with IExCor=  205 and IRadAn=       5 diagonalized for initial guess.
 HarFok:  IExCor=  205 AccDes= 0.00D+00 IRadAn=         5 IDoV= 1 UseB2=F ITyADJ=14
 ICtDFT=  3500011 ScaDFX=  1.000000  1.000000  1.000000  1.000000
 FoFCou: FMM=F IPFlag=           0 FMFlag=      100000 FMFlg1=           0
         NFxFlg=           0 DoJE=T BraDBF=F KetDBF=T FulRan=T
         wScrn=  0.000000 ICntrl=       500 IOpCl=  0 I1Cent=   200000004 NGrid=           0
         NMat0=    1 NMatS0=      1 NMatT0=    0 NMatD0=    1 NMtDS0=    0 NMtDT0=    0
 Petite list used in FoFCou.
 Keep R1 ints in memory in canonical form, NReq=38532487.
 Requested convergence on RMS density matrix=1.00D-08 within 128 cycles.
 Requested convergence on MAX density matrix=1.00D-06.
 Requested convergence on             energy=1.00D-06.
 No special actions if energy rises.
 SCF Done:  E(RHF) =  -289.218244866     A.U. after   12 cycles
            NFock= 12  Conv=0.67D-08     -V/T= 2.0011
 SCF density gives NOpUse=  1 NOpAll=  1.

 **********************************************************************

            Population analysis using the SCF Density.

 **********************************************************************

 Orbital symmetries:
 BldTbl:  Degeneracy threshold= 1.00D-02
       Occupied  (A) (A) (A) (A) (A) (A) (A) (A) (A) (A) (A) (A)
                 (A) (A) (A) (A) (A) (A) (A) (A) (A) (A) (A) (A)
                 (A) (A) (A) (A)
       Virtual   (A) (A) (A) (A) (A) (A) (A) (A) (A) (A) (A) (A)
                 (A) (A) (A) (A) (A) (A) (A) (A) (A) (A) (A) (A)
                 (A) (A) (A) (A) (A) (A) (A) (A) (A) (A) (A) (A)
                 (A) (A) (A) (A) (A) (A) (A) (A) (A) (A) (A) (A)
                 (A) (A) (A) (A) (A) (A) (A) (A) (A) (A) (A) (A)
                 (A) (A) (A) (A) (A) (A) (A) (A) (A) (A) (A) (A)
                 (A) (A) (A) (A) (A) (A) (A) (A) (A) (A) (A) (A)
                 (A) (A) (A) (A) (A) (A) (A) (A) (A) (A) (A) (A)
                 (A) (A) (A) (A) (A) (A) (A)
 The electronic state is 1-A.
 Alpha  occ. eigenvalues --  -15.51547 -11.24599 -11.21262 -11.21143 -11.21091
 Alpha  occ. eigenvalues --  -11.20894 -11.20371  -1.16900  -1.08844  -0.99934
 Alpha  occ. eigenvalues --   -0.96710  -0.82649  -0.81224  -0.75162  -0.66853
 Alpha  occ. eigenvalues --   -0.63997  -0.60660  -0.59696  -0.58418  -0.53403
 Alpha  occ. eigenvalues --   -0.52297  -0.51924  -0.48214  -0.47872  -0.45068
 Alpha  occ. eigenvalues --   -0.43668  -0.42778  -0.34299
 Alpha virt. eigenvalues --    0.22852   0.24072   0.24846   0.27877   0.30409
 Alpha virt. eigenvalues --    0.30843   0.32089   0.32757   0.33563   0.34366
 Alpha virt. eigenvalues --    0.34754   0.34886   0.36530   0.39804   0.42546
 Alpha virt. eigenvalues --    0.43568   0.44966   0.46964   0.48040   0.51623
 Alpha virt. eigenvalues --    0.73329   0.73855   0.75421   0.76683   0.77448
 Alpha virt. eigenvalues --    0.78879   0.81198   0.90664   0.92251   0.93905
 Alpha virt. eigenvalues --    0.95984   0.99393   1.01264   1.01327   1.01708
 Alpha virt. eigenvalues --    1.02536   1.07331   1.12382   1.13421   1.14398
 Alpha virt. eigenvalues --    1.14946   1.16242   1.16585   1.17911   1.20312
 Alpha virt. eigenvalues --    1.20527   1.22086   1.23517   1.25323   1.26049
 Alpha virt. eigenvalues --    1.26515   1.28915   1.40235   1.43936   1.49368
 Alpha virt. eigenvalues --    1.60742   1.63297   1.64801   1.65901   1.79245
 Alpha virt. eigenvalues --    1.84868   1.90223   1.93532   2.00096   2.01464
 Alpha virt. eigenvalues --    2.02906   2.09991   2.18070   2.20457   2.22107
 Alpha virt. eigenvalues --    2.23408   2.27533   2.29696   2.31876   2.35749
 Alpha virt. eigenvalues --    2.36262   2.43316   2.43909   2.52511   2.55708
 Alpha virt. eigenvalues --    2.59609   2.62038   2.65926   2.70243   2.72330
 Alpha virt. eigenvalues --    2.72547   2.75368   2.79783   2.91776   2.92346
 Alpha virt. eigenvalues --    3.00167   3.02295   3.08328   3.09956   3.18489
 Alpha virt. eigenvalues --    3.21632   4.26339   4.59956   4.70057   4.72491
 Alpha virt. eigenvalues --    4.99118   4.99679   5.04754
          Condensed to atoms (all electrons):
               1          2          3          4          5          6
     1  C    5.109865   0.340822  -0.057272  -0.004716  -0.057066   0.338166
     2  C    0.340822   5.143332   0.310168  -0.052892  -0.000829  -0.061342
     3  C   -0.057272   0.310168   5.171212   0.373809  -0.070784   0.001798
     4  C   -0.004716  -0.052892   0.373809   4.828509   0.372306  -0.052727
     5  C   -0.057066  -0.000829  -0.070784   0.372306   5.124177   0.330459
     6  C    0.338166  -0.061342   0.001798  -0.052727   0.330459   5.119658
     7  N   -0.000243   0.005824  -0.092974   0.268394  -0.060966   0.003610
     8  H    0.395602  -0.043636  -0.002555   0.000188  -0.002849  -0.043456
     9  H    0.404538  -0.039359   0.004530  -0.000244   0.004623  -0.039446
    10  H   -0.039034   0.400027  -0.035433   0.004238  -0.000472   0.004780
    11  H   -0.044532   0.396105  -0.043225  -0.003557   0.000423  -0.002647
    12  H   -0.002850  -0.041799   0.388950  -0.038953  -0.002713   0.000270
    13  H    0.004584  -0.038186   0.397333  -0.035787   0.004421  -0.000362
    14  H    0.000349   0.001072  -0.058602   0.410440  -0.037835  -0.002916
    15  H   -0.002908   0.000733  -0.004216  -0.041663   0.391848  -0.042177
    16  H    0.004417  -0.000448   0.004801  -0.034951   0.397784  -0.036347
    17  H   -0.038518   0.004684  -0.000514   0.004393  -0.037582   0.402479
    18  H   -0.044013  -0.002545   0.000339  -0.003653  -0.043963   0.397725
    19  H    0.000003  -0.000079   0.001071  -0.030037   0.003998  -0.000115
    20  H    0.000012  -0.000075   0.000743  -0.029437  -0.003217  -0.000072
               7          8          9         10         11         12
     1  C   -0.000243   0.395602   0.404538  -0.039034  -0.044532  -0.002850
     2  C    0.005824  -0.043636  -0.039359   0.400027   0.396105  -0.041799
     3  C   -0.092974  -0.002555   0.004530  -0.035433  -0.043225   0.388950
     4  C    0.268394   0.000188  -0.000244   0.004238  -0.003557  -0.038953
     5  C   -0.060966  -0.002849   0.004623  -0.000472   0.000423  -0.002713
     6  C    0.003610  -0.043456  -0.039446   0.004780  -0.002647   0.000270
     7  N    7.168534  -0.000037   0.000006  -0.000120  -0.000070   0.001217
     8  H   -0.000037   0.567151  -0.028071  -0.003484   0.004772   0.002834
     9  H    0.000006  -0.028071   0.546433  -0.002371  -0.003456  -0.000096
    10  H   -0.000120  -0.003484  -0.002371   0.548970  -0.028190  -0.003856
    11  H   -0.000070   0.004772  -0.003456  -0.028190   0.570076   0.004760
    12  H    0.001217   0.002834  -0.000096  -0.003856   0.004760   0.565534
    13  H    0.000662  -0.000101  -0.000098  -0.002830  -0.003428  -0.027098
    14  H   -0.040762   0.000073  -0.000048  -0.000170   0.002691   0.004603
    15  H   -0.002958   0.002859  -0.000093  -0.000055   0.000079   0.002856
    16  H    0.001468  -0.000098  -0.000091   0.000014  -0.000042  -0.000109
    17  H   -0.000075  -0.003505  -0.002408  -0.000107  -0.000096  -0.000040
    18  H   -0.000057   0.004731  -0.003408  -0.000100   0.002835   0.000077
    19  H    0.340177   0.000000  -0.000000   0.000001   0.000002   0.000042
    20  H    0.336458  -0.000003  -0.000000   0.000003   0.000000   0.001279
              13         14         15         16         17         18
     1  C    0.004584   0.000349  -0.002908   0.004417  -0.038518  -0.044013
     2  C   -0.038186   0.001072   0.000733  -0.000448   0.004684  -0.002545
     3  C    0.397333  -0.058602  -0.004216   0.004801  -0.000514   0.000339
     4  C   -0.035787   0.410440  -0.041663  -0.034951   0.004393  -0.003653
     5  C    0.004421  -0.037835   0.391848   0.397784  -0.037582  -0.043963
     6  C   -0.000362  -0.002916  -0.042177  -0.036347   0.402479   0.397725
     7  N    0.000662  -0.040762  -0.002958   0.001468  -0.000075  -0.000057
     8  H   -0.000101   0.000073   0.002859  -0.000098  -0.003505   0.004731
     9  H   -0.000098  -0.000048  -0.000093  -0.000091  -0.002408  -0.003408
    10  H   -0.002830  -0.000170  -0.000055   0.000014  -0.000107  -0.000100
    11  H   -0.003428   0.002691   0.000079  -0.000042  -0.000096   0.002835
    12  H   -0.027098   0.004603   0.002856  -0.000109  -0.000040   0.000077
    13  H    0.551015  -0.002748  -0.000084  -0.000102   0.000013  -0.000043
    14  H   -0.002748   0.564400   0.004589  -0.003995  -0.000076   0.002697
    15  H   -0.000084   0.004589   0.572090  -0.028634  -0.003585   0.004750
    16  H   -0.000102  -0.003995  -0.028634   0.530891  -0.002736  -0.003543
    17  H    0.000013  -0.000076  -0.003585  -0.002736   0.545032  -0.027964
    18  H   -0.000043   0.002697   0.004750  -0.003543  -0.027964   0.564617
    19  H    0.001097  -0.002210  -0.000028  -0.000112   0.000002   0.000002
    20  H   -0.000026   0.003561   0.003260   0.000254   0.000000   0.000003
              19         20
     1  C    0.000003   0.000012
     2  C   -0.000079  -0.000075
     3  C    0.001071   0.000743
     4  C   -0.030037  -0.029437
     5  C    0.003998  -0.003217
     6  C   -0.000115  -0.000072
     7  N    0.340177   0.336458
     8  H    0.000000  -0.000003
     9  H   -0.000000  -0.000000
    10  H    0.000001   0.000003
    11  H    0.000002   0.000000
    12  H    0.000042   0.001279
    13  H    0.001097  -0.000026
    14  H   -0.002210   0.003561
    15  H   -0.000028   0.003260
    16  H   -0.000112   0.000254
    17  H    0.000002   0.000000
    18  H    0.000002   0.000003
    19  H    0.344535  -0.017115
    20  H   -0.017115   0.347439
 Mulliken charges:
               1
     1  C   -0.307208
     2  C   -0.321576
     3  C   -0.289178
     4  C    0.066342
     5  C   -0.311765
     6  C   -0.317337
     7  N   -0.928086
     8  H    0.149585
     9  H    0.159060
    10  H    0.158189
    11  H    0.147499
    12  H    0.145092
    13  H    0.151768
    14  H    0.154887
    15  H    0.143338
    16  H    0.171576
    17  H    0.160604
    18  H    0.151512
    19  H    0.358765
    20  H    0.356934
 Sum of Mulliken charges =  -0.00000
 Mulliken charges with hydrogens summed into heavy atoms:
               1
     1  C    0.001437
     2  C   -0.015888
     3  C    0.007681
     4  C    0.221229
     5  C    0.003149
     6  C   -0.005221
     7  N   -0.212387
 DipInt: DoE/N= T F RetVal/Mat= T F Init=T NMatP=  1 IDeriv=0 Min/MaxMlt=  0  4
 Entering OneElI...
 OneElI was handed   134171268 working-precision words.
 Multipole integrals L=0 to 4 MinM= 0 MaxM= 0.
 Requested accuracy = 0.1000D-12
 ShPair: Thresh= 1.00D-13 NBox=     0 BxSize= 0.00D+00 RnKept= 1.14D+01
         NSMCal=                 1485 NSMKep=                1466
 PrmmSu-InSpLW:  IPartL=    0 NPrtUS=    1 NPrtUL=    1 DoSpLW=F IThBeg=    0 IThEnd=    0 NThAct=    1.
 PrSmSu:  IncTry=   512 NBBP=           1466 NTPThr=   100 NPartT=    1 Incr=          14 LDynOK=F GPUOK=F.
 PrsmSu:  NPrtUS=   1 ThrOK=F IAlg=2 LenDen=           0 ISkipM=0 DoSpLW=F IThBeg=    0 IThEnd=    0.
 Prism:   IPart=     0 DynPar=F LinDyn=F Incr=          14.
 PRISM was handed   134046156 working-precision words and  1466 shell-pairs
 IPart=  0 NShTot=        1466 NBatch=          38 AvBLen=        38.6
 PrsmSu-ThDecC:  IPartSL=    0    0 NPrtUSL=    1    1 IThBeg=    0 IThEnd=    0 CPU=   -1 GPU=   -1 NThAct=    1.
 PrSmSu:  NxtVal=             15.
 Electronic moments (au):
        -56.00000000          0.04755354          0.08842806         -0.04750930
       -480.77662366       -264.78183661        -82.96435979          1.17966218
         -0.28117482          0.97393797       -325.06423441         -3.56135710
         -1.80543444        178.48974660          1.91808343         45.31178185
         21.70649248          1.07598696         -8.92650109         -7.91442327
      -9022.07045348      -3009.05255082       -531.39765376         -1.01110236
        -48.95569206          7.48803191         13.96554085          2.13318463
          2.70122086      -1328.67452078       -657.16647230       -393.55377504
        -20.49941928        110.62308573          3.98796603
 Electronic spatial extent (au):  <R**2>=            828.5228
 DipInt: DoE/N= F T RetVal/Mat= T F Init=T NMatP=  1 IDeriv=0 Min/MaxMlt=  0  4
 Nuclear    moments (au):
         56.00000000          0.00000000          0.00000000         -0.00000000
        446.89190355        229.79671896         50.07783618          0.00000000
         -0.00000000         -0.00000000        347.05621870          2.96595111
          0.05791384       -176.58634223          5.76313126        -46.30622002
        -12.97117810         -1.85933714          8.73366053         13.21882554
       7427.67197805       2036.88997122        251.69776748         55.39730509
         39.37561953         -3.03855624        -12.22054778        -12.67205941
          1.72414370        873.97672210        351.79751002        181.43077264
         48.83842029       -101.94847904         -6.55176645
 Total      moments (au):
         -0.00000000          0.04755354          0.08842806         -0.04750930
        -33.88472011        -34.98511765        -32.88652361          1.17966218
         -0.28117482          0.97393797         21.99198429         -0.59540599
         -1.74752060          1.90340436          7.68121469         -0.99443817
          8.73531438         -0.78335019         -0.19284056          5.30440227
      -1594.39847543       -972.16257960       -279.69988628         54.38620273
         -9.58007252          4.44947567          1.74499307        -10.53887478
          4.42536456       -454.69779869       -305.36896228       -212.12300240
         28.33900101          8.67460669         -2.56380042
 Traceless Quadrup. (au):
          0.03406701         -1.06633053          1.03226351          1.17966218
         -0.28117482          0.97393797
 Charge=             -0.0000 electrons
 Dipole moment (field-independent basis, Debye):
    X=              0.1209    Y=              0.2248    Z=             -0.1208  Tot=              0.2823
 Quadrupole moment (field-independent basis, Debye-Ang):
   XX=            -45.5761   YY=            -47.0562   ZZ=            -44.2335
   XY=              1.5867   XZ=             -0.3782   YZ=              1.3100
 Traceless Quadrupole moment (field-independent basis, Debye-Ang):
   XX=              0.0458   YY=             -1.4343   ZZ=              1.3884
   XY=              1.5867   XZ=             -0.3782   YZ=              1.3100
 Octapole moment (field-independent basis, Debye-Ang**2):
  XXX=             15.6530  YYY=             -0.4238  ZZZ=             -1.2438  XYY=              1.3548
  XXY=              5.4672  XXZ=             -0.7078  XZZ=              6.2175  YZZ=             -0.5576
  YYZ=             -0.1373  XYZ=              3.7755
 Hexadecapole moment (field-independent basis, Debye-Ang**3):
 XXXX=           -600.5269 YYYY=           -366.1630 ZZZZ=           -105.3484 XXXY=             20.4845
 XXXZ=             -3.6083 YYYX=              1.6759 YYYZ=              0.6572 ZZZX=             -3.9694
 ZZZY=              1.6668 XXYY=           -171.2610 XXZZ=           -115.0166 YYZZ=            -79.8957
 XXYZ=             10.6738 YYXZ=              3.2673 ZZXY=             -0.9657
 N-N= 3.305778599851D+02 E-N=-1.335065580423D+03  KE= 2.889029291128D+02
 Entering OneElI...
 OneElI was handed   134179263 working-precision words.
 Calculate electrostatic properties
    NBasis =   131  MinDer = 0  MaxDer = 0
    NGrid  =    20  NMatD  =   1
 Requested accuracy = 0.1000D-12
 ShPair: Thresh= 1.00D-13 NBox=     0 BxSize= 0.00D+00 RnKept= 1.14D+01
         NSMCal=                 1485 NSMKep=                1428
 PrmmSu-InSpLW:  IPartL=    0 NPrtUS=    1 NPrtUL=    1 DoSpLW=F IThBeg=    0 IThEnd=    0 NThAct=    1.
 PrSmSu:  IncTry=   512 NBBP=          28560 NTPThr=   100 NPartT=    1 Incr=         285 LDynOK=F GPUOK=F.
 PrsmSu:  NPrtUS=   1 ThrOK=F IAlg=2 LenDen=           0 ISkipM=0 DoSpLW=F IThBeg=    0 IThEnd=    0.
 Prism:   IPart=     0 DynPar=F LinDyn=F Incr=         285.
 PRISM was handed   134060922 working-precision words and  1428 shell-pairs
 IPart=  0 NShTot=       28560 NBatch=        1428 AvBLen=        20.0
 PrsmSu-ThDecC:  IPartSL=    0    0 NPrtUSL=    1    1 IThBeg=    0 IThEnd=    0 CPU=   -1 GPU=   -1 NThAct=    1.
 PrSmSu:  NxtVal=            286.
 --------------------------------------------------------
       Center         ----      EFG at Nuclei      ----
                      3XX-RR        3YY-RR        3ZZ-RR
 --------------------------------------------------------
     1   Atom       -0.002361      0.008174     -0.005813
     2   Atom        0.015840     -0.006098     -0.009741
     3   Atom        0.006553      0.008614     -0.015167
     4   Atom       -0.171843      0.103418      0.068425
     5   Atom        0.017616     -0.001803     -0.015813
     6   Atom       -0.000364      0.003986     -0.003622
     7   Atom       -0.630657      0.908279     -0.277622
     8   Atom        0.149300      0.144141     -0.293441
     9   Atom       -0.252394      0.144528      0.107867
    10   Atom        0.062265     -0.141224      0.078959
    11   Atom        0.140912      0.144371     -0.285283
    12   Atom        0.142297      0.144315     -0.286612
    13   Atom        0.057650     -0.142203      0.084554
    14   Atom        0.139852      0.151166     -0.291018
    15   Atom        0.138938      0.144408     -0.283346
    16   Atom        0.067044     -0.144289      0.077245
    17   Atom        0.054819     -0.140425      0.085606
    18   Atom        0.139869      0.145473     -0.285342
    19   Atom       -0.101101      0.083010      0.018091
    20   Atom        0.154531      0.184725     -0.339256
 --------------------------------------------------------
                        XY            XZ            YZ
 --------------------------------------------------------
     1   Atom        0.002198     -0.005814      0.001357
     2   Atom        0.001163     -0.004081     -0.005561
     3   Atom       -0.028235      0.009839      0.000744
     4   Atom        0.000540      0.090084      0.000700
     5   Atom        0.003280      0.012887     -0.014527
     6   Atom       -0.004066      0.004530      0.004179
     7   Atom       -0.375035      0.214552     -0.806518
     8   Atom        0.000044     -0.007952     -0.004766
     9   Atom        0.006128      0.130444     -0.001790
    10   Atom        0.154051     -0.078267      0.143625
    11   Atom        0.001258      0.042142     -0.034847
    12   Atom        0.000281      0.040303      0.021996
    13   Atom       -0.157190     -0.076558     -0.135237
    14   Atom       -0.002169      0.008427     -0.005789
    15   Atom       -0.001103      0.040312     -0.033336
    16   Atom        0.150113     -0.073692      0.141192
    17   Atom       -0.160350     -0.077425     -0.137293
    18   Atom       -0.000309      0.042010      0.023947
    19   Atom       -0.237536     -0.216802     -0.213505
    20   Atom        0.025126      0.129608     -0.230852
 --------------------------------------------------------


 ---------------------------------------------------------------------------------
              Nuclear Quadrupole Coupling Constant in Principal Axis System
 ---------------------------------------------------------------------------------

       Atom             a.u.   MegaHertz   Gauss  10(-4) cm-1        Axes

              Baa    -0.7321     3.516     1.255     1.173  0.8868 -0.0242 -0.4616
     7 N(14)  Bbb    -0.6756     3.245     1.158     1.082  0.4132  0.4890  0.7682
              Bcc     1.4077    -6.761    -2.412    -2.255 -0.2071  0.8719 -0.4436
 

 ---------------------------------------------------------------------------------

 No NMR shielding tensors so no spin-rotation constants.
 Leave Link  601 at Thu Nov  2 13:04:17 2023, MaxMem=   134217728 cpu:               0.1 elap:               0.1
 FitSet:  NAtFit=    20 NAtPot=    20 NAtFrz=     0 MDM=    24 TotChg=   0.00000
 Merz-Kollman atomic radii used.
 Atom Element Radius
    1     6    1.50
    2     6    1.50
    3     6    1.50
    4     6    1.50
    5     6    1.50
    6     6    1.50
    7     7    1.50
    8     1    1.20
    9     1    1.20
   10     1    1.20
   11     1    1.20
   12     1    1.20
   13     1    1.20
   14     1    1.20
   15     1    1.20
   16     1    1.20
   17     1    1.20
   18     1    1.20
   19     1    1.20
   20     1    1.20
 Generate VDW surfaces: Layer= 4 Dens= 6 Start= 1.400 Inc= 0.200

 **********************************************************************

            Electrostatic Properties Using The SCF Density.

 **********************************************************************

       Atomic Center    1 is at  -1.868244  0.015026 -0.289565
       Atomic Center    2 is at  -1.152887  1.275346  0.190462
       Atomic Center    3 is at   0.329848  1.255009 -0.175528
       Atomic Center    4 is at   1.017262 -0.011229  0.346647
       Atomic Center    5 is at   0.300231 -1.272398 -0.147218
       Atomic Center    6 is at  -1.182743 -1.249841  0.218881
       Atomic Center    7 is at   2.413486 -0.032302 -0.083851
       Atomic Center    8 is at  -1.888656  0.003383 -1.385486
       Atomic Center    9 is at  -2.910247  0.031053  0.049201
       Atomic Center   10 is at  -1.628943  2.158579 -0.249150
       Atomic Center   11 is at  -1.259054  1.363332  1.279010
       Atomic Center   12 is at   0.428670  1.318136 -1.266892
       Atomic Center   13 is at   0.815375  2.147485  0.238934
       Atomic Center   14 is at   1.001200  0.001099  1.440287
       Atomic Center   15 is at   0.397740 -1.361214 -1.237848
       Atomic Center   16 is at   0.764420 -2.166989  0.286721
       Atomic Center   17 is at  -1.678791 -2.131509 -0.200319
       Atomic Center   18 is at  -1.289054 -1.310596  1.309705
       Atomic Center   19 is at   3.076687  0.475847  0.457725
       Atomic Center   20 is at   2.615448 -0.373961 -0.997005
      ESP Fit Center   21 is at  -2.277934  0.015026  1.770084
      ESP Fit Center   22 is at  -3.276782  1.349264 -1.093200
      ESP Fit Center   23 is at  -3.276782 -1.319213 -1.093200
      ESP Fit Center   24 is at  -2.860134  1.452026 -1.456263
      ESP Fit Center   25 is at  -3.175209  1.172895 -1.456263
      ESP Fit Center   26 is at  -3.414327  0.826472 -1.456263
      ESP Fit Center   27 is at  -3.563592  0.432891 -1.456263
      ESP Fit Center   28 is at  -3.563592 -0.402840 -1.456263
      ESP Fit Center   29 is at  -3.414327 -0.796421 -1.456263
      ESP Fit Center   30 is at  -3.175209 -1.142844 -1.456263
      ESP Fit Center   31 is at  -2.860134 -1.421975 -1.456263
      ESP Fit Center   32 is at  -0.533716  2.907965  1.357159
      ESP Fit Center   33 is at  -0.633842  3.144774  0.994097
      ESP Fit Center   34 is at  -1.047849  3.212647  0.994097
      ESP Fit Center   35 is at  -2.815316  2.275596  0.994097
      ESP Fit Center   36 is at  -2.991473  1.894837  0.994097
      ESP Fit Center   37 is at  -3.081660  1.485112  0.994097
      ESP Fit Center   38 is at  -0.437560  3.206786  0.600151
      ESP Fit Center   39 is at  -3.118079  1.891929  0.600151
      ESP Fit Center   40 is at  -3.212536  1.685035  0.190462
      ESP Fit Center   41 is at  -1.357732  1.630147 -1.869187
      ESP Fit Center   42 is at   0.534693  1.609810  1.884121
      ESP Fit Center   43 is at  -0.186408  3.248908 -0.585218
      ESP Fit Center   44 is at   2.090678  2.069655 -0.979163
      ESP Fit Center   45 is at   0.015967  3.169597 -0.979163
      ESP Fit Center   46 is at  -0.388274  3.057360 -0.979163
      ESP Fit Center   47 is at   0.119381  2.988364 -1.342225
      ESP Fit Center   48 is at  -0.289322  2.887628 -1.342225
      ESP Fit Center   49 is at   2.009152  1.425771  1.513344
      ESP Fit Center   50 is at   2.009152 -1.448230  1.513344
      ESP Fit Center   51 is at   0.505076 -1.627200  1.912431
      ESP Fit Center   52 is at  -0.216025 -3.266297 -0.556907
      ESP Fit Center   53 is at  -0.417891 -3.074750 -0.950853
      ESP Fit Center   54 is at  -0.013650 -3.186987 -0.950853
      ESP Fit Center   55 is at   2.061061 -2.087045 -0.950853
      ESP Fit Center   56 is at  -0.318939 -2.905017 -1.313915
      ESP Fit Center   57 is at  -0.972276 -2.983196  1.385579
      ESP Fit Center   58 is at  -0.563572 -2.882460  1.385579
      ESP Fit Center   59 is at  -3.111517 -1.459608  1.022516
      ESP Fit Center   60 is at  -3.021329 -1.869333  1.022516
      ESP Fit Center   61 is at  -2.845172 -2.250091  1.022516
      ESP Fit Center   62 is at  -1.077706 -3.187143  1.022516
      ESP Fit Center   63 is at  -0.663699 -3.119270  1.022516
      ESP Fit Center   64 is at  -3.147935 -1.866424  0.628571
      ESP Fit Center   65 is at  -3.242392 -1.659531  0.218881
      ESP Fit Center   66 is at  -1.387588 -1.604643 -1.840768
      ESP Fit Center   67 is at   2.618331 -0.387103  1.975798
      ESP Fit Center   68 is at   2.413486 -0.835937  1.856296
      ESP Fit Center   69 is at   2.815303 -0.728270  1.856296
      ESP Fit Center   70 is at   2.521135 -1.194022  1.662236
      ESP Fit Center   71 is at   2.933528 -1.076687  1.662236
      ESP Fit Center   72 is at   3.275686 -0.818301  1.662236
      ESP Fit Center   73 is at   2.202159 -1.502112  1.401074
      ESP Fit Center   74 is at   2.624812 -1.502112  1.401074
      ESP Fit Center   75 is at   3.030346 -1.383036  1.401074
      ESP Fit Center   76 is at   3.385904 -1.154533  1.401074
      ESP Fit Center   77 is at   3.662683 -0.835112  1.401074
      ESP Fit Center   78 is at   2.203018 -1.765657  1.082847
      ESP Fit Center   79 is at   2.623953 -1.765657  1.082847
      ESP Fit Center   80 is at   3.032656 -1.664921  1.082847
      ESP Fit Center   81 is at   3.405376 -1.469303  1.082847
      ESP Fit Center   82 is at   3.720450 -1.190171  1.082847
      ESP Fit Center   83 is at   3.959568 -0.843748  1.082847
      ESP Fit Center   84 is at   2.518523 -1.969603  0.719785
      ESP Fit Center   85 is at   2.932530 -1.901730  0.719785
      ESP Fit Center   86 is at   3.322267 -1.746445  0.719785
      ESP Fit Center   87 is at   3.669510 -1.511008  0.719785
      ESP Fit Center   88 is at   3.958023 -1.206429  0.719785
      ESP Fit Center   89 is at   4.174315 -0.846948  0.719785
      ESP Fit Center   90 is at   2.725374 -2.068200  0.325839
      ESP Fit Center   91 is at   3.128813 -1.963742  0.325839
      ESP Fit Center   92 is at   3.502966 -1.780211  0.325839
      ESP Fit Center   93 is at   3.832516 -1.525121  0.325839
      ESP Fit Center   94 is at   4.103970 -1.208914  0.325839
      ESP Fit Center   95 is at   4.306216 -0.844536  0.325839
      ESP Fit Center   96 is at   2.413486 -2.132302 -0.083851
      ESP Fit Center   97 is at   2.823175 -2.091951 -0.083851
      ESP Fit Center   98 is at   3.217121 -1.972449 -0.083851
      ESP Fit Center   99 is at   3.580183 -1.778388 -0.083851
      ESP Fit Center  100 is at   3.898410 -1.517226 -0.083851
      ESP Fit Center  101 is at   4.159572 -1.198999 -0.083851
      ESP Fit Center  102 is at   4.353633 -0.835937 -0.083851
      ESP Fit Center  103 is at   4.473135 -0.441991 -0.083851
      ESP Fit Center  104 is at   4.473135 -0.032302 -0.493540
      ESP Fit Center  105 is at   3.128813  1.899139 -0.493540
      ESP Fit Center  106 is at   2.725374  2.003596 -0.493540
      ESP Fit Center  107 is at   2.309166 -2.089307 -0.493540
      ESP Fit Center  108 is at   2.725374 -2.068200 -0.493540
      ESP Fit Center  109 is at   3.128813 -1.963742 -0.493540
      ESP Fit Center  110 is at   3.502966 -1.780211 -0.493540
      ESP Fit Center  111 is at   3.832516 -1.525121 -0.493540
      ESP Fit Center  112 is at   4.103970 -1.208914 -0.493540
      ESP Fit Center  113 is at   4.306216 -0.844536 -0.493540
      ESP Fit Center  114 is at   4.430974 -0.446906 -0.493540
      ESP Fit Center  115 is at   4.353633 -0.032302 -0.887486
      ESP Fit Center  116 is at   4.308273  0.384772 -0.887486
      ESP Fit Center  117 is at   4.174315  0.782345 -0.887486
      ESP Fit Center  118 is at   3.958023  1.141825 -0.887486
      ESP Fit Center  119 is at   3.669510  1.446405 -0.887486
      ESP Fit Center  120 is at   3.322267  1.681841 -0.887486
      ESP Fit Center  121 is at   2.932530  1.837127 -0.887486
      ESP Fit Center  122 is at   2.518523  1.905000 -0.887486
      ESP Fit Center  123 is at   4.308273 -0.449376 -0.887486
      ESP Fit Center  124 is at   4.108834  0.385564 -1.250548
      ESP Fit Center  125 is at   3.959568  0.779145 -1.250548
      ESP Fit Center  126 is at   3.720450  1.125568 -1.250548
      ESP Fit Center  127 is at   3.405376  1.404699 -1.250548
      ESP Fit Center  128 is at   3.032656  1.600317 -1.250548
      ESP Fit Center  129 is at   2.623953  1.701053 -1.250548
      ESP Fit Center  130 is at   2.203018  1.701053 -1.250548
      ESP Fit Center  131 is at   3.385904  1.089929 -1.568775
      ESP Fit Center  132 is at   3.030346  1.318433 -1.568775
      ESP Fit Center  133 is at   2.624812  1.437508 -1.568775
      ESP Fit Center  134 is at   2.202159  1.437508 -1.568775
      ESP Fit Center  135 is at   2.521135  1.129419 -1.829937
      ESP Fit Center  136 is at   2.094204  1.089858 -1.829937
      ESP Fit Center  137 is at  -2.308656  1.570844 -1.820302
      ESP Fit Center  138 is at  -2.700034  1.408730 -1.820302
      ESP Fit Center  139 is at  -3.036117  1.150844 -1.820302
      ESP Fit Center  140 is at  -3.294004  0.814760 -1.820302
      ESP Fit Center  141 is at  -3.456117  0.423383 -1.820302
      ESP Fit Center  142 is at  -3.511412  0.003383 -1.820302
      ESP Fit Center  143 is at  -3.456117 -0.416617 -1.820302
      ESP Fit Center  144 is at  -3.294004 -0.807995 -1.820302
      ESP Fit Center  145 is at  -3.036117 -1.144079 -1.820302
      ESP Fit Center  146 is at  -2.700034 -1.401965 -1.820302
      ESP Fit Center  147 is at  -2.308656 -1.564079 -1.820302
      ESP Fit Center  148 is at  -1.888656 -1.619373 -1.820302
      ESP Fit Center  149 is at  -0.433733  0.003383 -2.225486
      ESP Fit Center  150 is at  -0.981527  1.140887 -2.225486
      ESP Fit Center  151 is at  -1.357113  1.357732 -2.225486
      ESP Fit Center  152 is at  -1.779930  1.454237 -2.225486
      ESP Fit Center  153 is at  -2.212407  1.421827 -2.225486
      ESP Fit Center  154 is at  -2.616117  1.263383 -2.225486
      ESP Fit Center  155 is at  -2.955190  0.992981 -2.225486
      ESP Fit Center  156 is at  -3.199496  0.634650 -2.225486
      ESP Fit Center  157 is at  -3.327329  0.220228 -2.225486
      ESP Fit Center  158 is at  -3.327329 -0.213462 -2.225486
      ESP Fit Center  159 is at  -3.199496 -0.627885 -2.225486
      ESP Fit Center  160 is at  -2.955190 -0.986216 -2.225486
      ESP Fit Center  161 is at  -2.616117 -1.256617 -2.225486
      ESP Fit Center  162 is at  -2.212407 -1.415062 -2.225486
      ESP Fit Center  163 is at  -1.779930 -1.447472 -2.225486
      ESP Fit Center  164 is at  -1.357113 -1.350967 -2.225486
      ESP Fit Center  165 is at  -0.981527 -1.134122 -2.225486
      ESP Fit Center  166 is at  -0.700717  0.003383 -2.573426
      ESP Fit Center  167 is at  -0.780936  0.432516 -2.573426
      ESP Fit Center  168 is at  -1.010758  0.803692 -2.573426
      ESP Fit Center  169 is at  -1.359146  1.066782 -2.573426
      ESP Fit Center  170 is at  -1.779047  1.186255 -2.573426
      ESP Fit Center  171 is at  -2.213751  1.145973 -2.573426
      ESP Fit Center  172 is at  -2.604550  0.951379 -2.573426
      ESP Fit Center  173 is at  -2.898663  0.628752 -2.573426
      ESP Fit Center  174 is at  -3.056369  0.221666 -2.573426
      ESP Fit Center  175 is at  -3.056369 -0.214901 -2.573426
      ESP Fit Center  176 is at  -2.898663 -0.621987 -2.573426
      ESP Fit Center  177 is at  -2.604550 -0.944613 -2.573426
      ESP Fit Center  178 is at  -2.213751 -1.139208 -2.573426
      ESP Fit Center  179 is at  -1.779047 -1.179489 -2.573426
      ESP Fit Center  180 is at  -1.359146 -1.060017 -2.573426
      ESP Fit Center  181 is at  -1.010758 -0.796927 -2.573426
      ESP Fit Center  182 is at  -0.780936 -0.425750 -2.573426
      ESP Fit Center  183 is at  -1.048656  0.003383 -2.840409
      ESP Fit Center  184 is at  -1.161195  0.423383 -2.840409
      ESP Fit Center  185 is at  -1.468656  0.730844 -2.840409
      ESP Fit Center  186 is at  -1.888656  0.843383 -2.840409
      ESP Fit Center  187 is at  -2.308656  0.730844 -2.840409
      ESP Fit Center  188 is at  -2.616117  0.423383 -2.840409
      ESP Fit Center  189 is at  -2.728656  0.003383 -2.840409
      ESP Fit Center  190 is at  -2.616117 -0.416617 -2.840409
      ESP Fit Center  191 is at  -2.308656 -0.724079 -2.840409
      ESP Fit Center  192 is at  -1.888656 -0.836617 -2.840409
      ESP Fit Center  193 is at  -1.468656 -0.724079 -2.840409
      ESP Fit Center  194 is at  -1.161195 -0.416617 -2.840409
      ESP Fit Center  195 is at  -1.453840  0.003383 -3.008242
      ESP Fit Center  196 is at  -1.671248  0.379944 -3.008242
      ESP Fit Center  197 is at  -2.106064  0.379944 -3.008242
      ESP Fit Center  198 is at  -2.323472  0.003383 -3.008242
      ESP Fit Center  199 is at  -2.106064 -0.373179 -3.008242
      ESP Fit Center  200 is at  -1.671248 -0.373179 -3.008242
      ESP Fit Center  201 is at  -1.888656  0.003383 -3.065486
      ESP Fit Center  202 is at  -2.910247  0.031053  1.729201
      ESP Fit Center  203 is at  -2.692839  0.407614  1.671956
      ESP Fit Center  204 is at  -3.127655  0.407614  1.671956
      ESP Fit Center  205 is at  -3.345063  0.031053  1.671956
      ESP Fit Center  206 is at  -3.127655 -0.345509  1.671956
      ESP Fit Center  207 is at  -2.692839 -0.345509  1.671956
      ESP Fit Center  208 is at  -2.910247  0.871053  1.504123
      ESP Fit Center  209 is at  -3.330247  0.758514  1.504123
      ESP Fit Center  210 is at  -3.637708  0.451053  1.504123
      ESP Fit Center  211 is at  -3.750247  0.031053  1.504123
      ESP Fit Center  212 is at  -3.637708 -0.388947  1.504123
      ESP Fit Center  213 is at  -3.330247 -0.696409  1.504123
      ESP Fit Center  214 is at  -2.910247 -0.808947  1.504123
      ESP Fit Center  215 is at  -3.235342  1.173643  1.237140
      ESP Fit Center  216 is at  -3.626140  0.979049  1.237140
      ESP Fit Center  217 is at  -3.920253  0.656422  1.237140
      ESP Fit Center  218 is at  -4.077959  0.249336  1.237140
      ESP Fit Center  219 is at  -4.077959 -0.187230  1.237140
      ESP Fit Center  220 is at  -3.920253 -0.594317  1.237140
      ESP Fit Center  221 is at  -3.626140 -0.916943  1.237140
      ESP Fit Center  222 is at  -3.235342 -1.111538  1.237140
      ESP Fit Center  223 is at  -3.233997  1.449498  0.889201
      ESP Fit Center  224 is at  -3.637708  1.291053  0.889201
      ESP Fit Center  225 is at  -3.976780  1.020652  0.889201
      ESP Fit Center  226 is at  -4.221087  0.662320  0.889201
      ESP Fit Center  227 is at  -4.348919  0.247898  0.889201
      ESP Fit Center  228 is at  -4.348919 -0.185792  0.889201
      ESP Fit Center  229 is at  -4.221087 -0.600214  0.889201
      ESP Fit Center  230 is at  -3.976780 -0.958546  0.889201
      ESP Fit Center  231 is at  -3.637708 -1.228947  0.889201
      ESP Fit Center  232 is at  -3.233997 -1.387392  0.889201
      ESP Fit Center  233 is at  -3.330247  1.598514  0.484017
      ESP Fit Center  234 is at  -3.721624  1.436400  0.484017
      ESP Fit Center  235 is at  -4.057708  1.178514  0.484017
      ESP Fit Center  236 is at  -4.315594  0.842430  0.484017
      ESP Fit Center  237 is at  -4.477708  0.451053  0.484017
      ESP Fit Center  238 is at  -4.533002  0.031053  0.484017
      ESP Fit Center  239 is at  -4.477708 -0.388947  0.484017
      ESP Fit Center  240 is at  -4.315594 -0.780325  0.484017
      ESP Fit Center  241 is at  -4.057708 -1.116409  0.484017
      ESP Fit Center  242 is at  -3.721624 -1.374295  0.484017
      ESP Fit Center  243 is at  -3.330247 -1.536409  0.484017
      ESP Fit Center  244 is at  -3.225047  1.681295  0.049201
      ESP Fit Center  245 is at  -3.625556  1.551162  0.049201
      ESP Fit Center  246 is at  -3.981119  1.325515  0.049201
      ESP Fit Center  247 is at  -4.269395  1.018532  0.049201
      ESP Fit Center  248 is at  -4.472271  0.649502  0.049201
      ESP Fit Center  249 is at  -4.576999  0.241613  0.049201
      ESP Fit Center  250 is at  -4.576999 -0.179507  0.049201
      ESP Fit Center  251 is at  -4.472271 -0.587396  0.049201
      ESP Fit Center  252 is at  -4.269395 -0.956426  0.049201
      ESP Fit Center  253 is at  -3.981119 -1.263409  0.049201
      ESP Fit Center  254 is at  -3.625556 -1.489057  0.049201
      ESP Fit Center  255 is at  -3.330247  1.598514 -0.385615
      ESP Fit Center  256 is at  -3.721624  1.436400 -0.385615
      ESP Fit Center  257 is at  -4.057708  1.178514 -0.385615
      ESP Fit Center  258 is at  -4.315594  0.842430 -0.385615
      ESP Fit Center  259 is at  -4.477708  0.451053 -0.385615
      ESP Fit Center  260 is at  -4.533002  0.031053 -0.385615
      ESP Fit Center  261 is at  -4.477708 -0.388947 -0.385615
      ESP Fit Center  262 is at  -4.315594 -0.780325 -0.385615
      ESP Fit Center  263 is at  -4.057708 -1.116409 -0.385615
      ESP Fit Center  264 is at  -3.721624 -1.374295 -0.385615
      ESP Fit Center  265 is at  -3.330247 -1.536409 -0.385615
      ESP Fit Center  266 is at  -3.637708  1.291053 -0.790799
      ESP Fit Center  267 is at  -3.976780  1.020652 -0.790799
      ESP Fit Center  268 is at  -4.221087  0.662320 -0.790799
      ESP Fit Center  269 is at  -4.348919  0.247898 -0.790799
      ESP Fit Center  270 is at  -4.348919 -0.185792 -0.790799
      ESP Fit Center  271 is at  -4.221087 -0.600214 -0.790799
      ESP Fit Center  272 is at  -3.976780 -0.958546 -0.790799
      ESP Fit Center  273 is at  -3.637708 -1.228947 -0.790799
      ESP Fit Center  274 is at  -3.626140  0.979049 -1.138739
      ESP Fit Center  275 is at  -3.920253  0.656422 -1.138739
      ESP Fit Center  276 is at  -4.077959  0.249336 -1.138739
      ESP Fit Center  277 is at  -4.077959 -0.187230 -1.138739
      ESP Fit Center  278 is at  -3.920253 -0.594317 -1.138739
      ESP Fit Center  279 is at  -3.626140 -0.916943 -1.138739
      ESP Fit Center  280 is at  -3.637708  0.451053 -1.405722
      ESP Fit Center  281 is at  -3.750247  0.031053 -1.405722
      ESP Fit Center  282 is at  -3.637708 -0.388947 -1.405722
      ESP Fit Center  283 is at  -2.048943  2.886041  1.205772
      ESP Fit Center  284 is at  -1.519334  3.341451  0.938789
      ESP Fit Center  285 is at  -1.954038  3.301170  0.938789
      ESP Fit Center  286 is at  -2.344836  3.106575  0.938789
      ESP Fit Center  287 is at  -2.638949  2.783949  0.938789
      ESP Fit Center  288 is at  -2.796655  2.376863  0.938789
      ESP Fit Center  289 is at  -0.721814  3.296084  0.590850
      ESP Fit Center  290 is at  -1.097400  3.512929  0.590850
      ESP Fit Center  291 is at  -1.520216  3.609434  0.590850
      ESP Fit Center  292 is at  -1.952694  3.577024  0.590850
      ESP Fit Center  293 is at  -2.356404  3.418579  0.590850
      ESP Fit Center  294 is at  -2.695477  3.148178  0.590850
      ESP Fit Center  295 is at  -2.939783  2.789847  0.590850
      ESP Fit Center  296 is at  -3.067615  2.375424  0.590850
      ESP Fit Center  297 is at  -0.481482  3.306041  0.185666
      ESP Fit Center  298 is at  -0.817565  3.563927  0.185666
      ESP Fit Center  299 is at  -1.208943  3.726041  0.185666
      ESP Fit Center  300 is at  -1.628943  3.781335  0.185666
      ESP Fit Center  301 is at  -2.048943  3.726041  0.185666
      ESP Fit Center  302 is at  -2.440321  3.563927  0.185666
      ESP Fit Center  303 is at  -2.776404  3.306041  0.185666
      ESP Fit Center  304 is at  -3.034290  2.969957  0.185666
      ESP Fit Center  305 is at  -3.196404  2.578579  0.185666
      ESP Fit Center  306 is at  -3.251698  2.158579  0.185666
      ESP Fit Center  307 is at  -0.404276  3.308618 -0.249150
      ESP Fit Center  308 is at  -0.728754  3.577050 -0.249150
      ESP Fit Center  309 is at  -1.109794  3.756354 -0.249150
      ESP Fit Center  310 is at  -1.523455  3.835264 -0.249150
      ESP Fit Center  311 is at  -1.943744  3.808822 -0.249150
      ESP Fit Center  312 is at  -2.344252  3.678689 -0.249150
      ESP Fit Center  313 is at  -2.699815  3.453041 -0.249150
      ESP Fit Center  314 is at  -2.988092  3.146058 -0.249150
      ESP Fit Center  315 is at  -3.190967  2.777028 -0.249150
      ESP Fit Center  316 is at  -3.295696  2.369139 -0.249150
      ESP Fit Center  317 is at  -3.295696  1.948019 -0.249150
      ESP Fit Center  318 is at  -0.481482  3.306041 -0.683966
      ESP Fit Center  319 is at  -0.817565  3.563927 -0.683966
      ESP Fit Center  320 is at  -1.208943  3.726041 -0.683966
      ESP Fit Center  321 is at  -1.628943  3.781335 -0.683966
      ESP Fit Center  322 is at  -2.048943  3.726041 -0.683966
      ESP Fit Center  323 is at  -2.440321  3.563927 -0.683966
      ESP Fit Center  324 is at  -2.776404  3.306041 -0.683966
      ESP Fit Center  325 is at  -3.034290  2.969957 -0.683966
      ESP Fit Center  326 is at  -3.196404  2.578579 -0.683966
      ESP Fit Center  327 is at  -3.251698  2.158579 -0.683966
      ESP Fit Center  328 is at  -3.196404  1.738579 -0.683966
      ESP Fit Center  329 is at  -0.721814  3.296084 -1.089150
      ESP Fit Center  330 is at  -1.097400  3.512929 -1.089150
      ESP Fit Center  331 is at  -1.520216  3.609434 -1.089150
      ESP Fit Center  332 is at  -1.952694  3.577024 -1.089150
      ESP Fit Center  333 is at  -2.356404  3.418579 -1.089150
      ESP Fit Center  334 is at  -2.695477  3.148178 -1.089150
      ESP Fit Center  335 is at  -2.939783  2.789847 -1.089150
      ESP Fit Center  336 is at  -3.067615  2.375424 -1.089150
      ESP Fit Center  337 is at  -3.067615  1.941734 -1.089150
      ESP Fit Center  338 is at  -0.751045  2.958889 -1.437090
      ESP Fit Center  339 is at  -1.099433  3.221979 -1.437090
      ESP Fit Center  340 is at  -1.519334  3.341451 -1.437090
      ESP Fit Center  341 is at  -1.954038  3.301170 -1.437090
      ESP Fit Center  342 is at  -2.344836  3.106575 -1.437090
      ESP Fit Center  343 is at  -2.638949  2.783949 -1.437090
      ESP Fit Center  344 is at  -2.796655  2.376863 -1.437090
      ESP Fit Center  345 is at  -2.796655  1.940296 -1.437090
      ESP Fit Center  346 is at  -0.901482  2.578579 -1.704073
      ESP Fit Center  347 is at  -1.208943  2.886041 -1.704073
      ESP Fit Center  348 is at  -1.628943  2.998579 -1.704073
      ESP Fit Center  349 is at  -2.048943  2.886041 -1.704073
      ESP Fit Center  350 is at  -2.356404  2.578579 -1.704073
      ESP Fit Center  351 is at  -2.468943  2.158579 -1.704073
      ESP Fit Center  352 is at  -2.356404  1.738579 -1.704073
      ESP Fit Center  353 is at  -1.194127  2.158579 -1.871906
      ESP Fit Center  354 is at  -1.411535  2.535141 -1.871906
      ESP Fit Center  355 is at  -1.846351  2.535141 -1.871906
      ESP Fit Center  356 is at  -2.063759  2.158579 -1.871906
      ESP Fit Center  357 is at  -1.846351  1.782018 -1.871906
      ESP Fit Center  358 is at  -1.411535  1.782018 -1.871906
      ESP Fit Center  359 is at  -1.628943  2.158579 -1.929150
      ESP Fit Center  360 is at  -1.259054  1.363332  2.959010
      ESP Fit Center  361 is at  -0.824238  1.363332  2.901765
      ESP Fit Center  362 is at  -1.041646  1.739893  2.901765
      ESP Fit Center  363 is at  -1.476462  1.739893  2.901765
      ESP Fit Center  364 is at  -1.693870  1.363332  2.901765
      ESP Fit Center  365 is at  -1.476462  0.986770  2.901765
      ESP Fit Center  366 is at  -1.041646  0.986770  2.901765
      ESP Fit Center  367 is at  -0.419054  1.363332  2.733932
      ESP Fit Center  368 is at  -0.531593  1.783332  2.733932
      ESP Fit Center  369 is at  -0.839054  2.090793  2.733932
      ESP Fit Center  370 is at  -1.259054  2.203332  2.733932
      ESP Fit Center  371 is at  -1.679054  2.090793  2.733932
      ESP Fit Center  372 is at  -1.986516  1.783332  2.733932
      ESP Fit Center  373 is at  -2.099054  1.363332  2.733932
      ESP Fit Center  374 is at  -1.986516  0.943332  2.733932
      ESP Fit Center  375 is at  -1.679054  0.635870  2.733932
      ESP Fit Center  376 is at  -1.259054  0.523332  2.733932
      ESP Fit Center  377 is at  -0.839054  0.635870  2.733932
      ESP Fit Center  378 is at  -0.531593  0.943332  2.733932
      ESP Fit Center  379 is at  -0.071115  1.363332  2.466949
      ESP Fit Center  380 is at  -0.151334  1.792465  2.466949
      ESP Fit Center  381 is at  -0.381157  2.163641  2.466949
      ESP Fit Center  382 is at  -0.729544  2.426731  2.466949
      ESP Fit Center  383 is at  -1.149445  2.546203  2.466949
      ESP Fit Center  384 is at  -1.584149  2.505922  2.466949
      ESP Fit Center  385 is at  -1.974948  2.311328  2.466949
      ESP Fit Center  386 is at  -2.269061  1.988701  2.466949
      ESP Fit Center  387 is at  -2.426767  1.581615  2.466949
      ESP Fit Center  388 is at  -2.426767  1.145048  2.466949
      ESP Fit Center  389 is at  -2.269061  0.737962  2.466949
      ESP Fit Center  390 is at  -1.974948  0.415335  2.466949
      ESP Fit Center  391 is at  -1.584149  0.220741  2.466949
      ESP Fit Center  392 is at  -1.149445  0.180460  2.466949
      ESP Fit Center  393 is at  -0.729544  0.299932  2.466949
      ESP Fit Center  394 is at  -0.381157  0.563022  2.466949
      ESP Fit Center  395 is at  -0.151334  0.934198  2.466949
      ESP Fit Center  396 is at   0.195868  1.363332  2.119010
      ESP Fit Center  397 is at   0.131230  1.792177  2.119010
      ESP Fit Center  398 is at  -0.056941  2.182919  2.119010
      ESP Fit Center  399 is at  -0.351925  2.500836  2.119010
      ESP Fit Center  400 is at  -0.727511  2.717681  2.119010
      ESP Fit Center  401 is at  -1.150328  2.814186  2.119010
      ESP Fit Center  402 is at  -1.582805  2.781776  2.119010
      ESP Fit Center  403 is at  -1.986516  2.623332  2.119010
      ESP Fit Center  404 is at  -2.325588  2.352930  2.119010
      ESP Fit Center  405 is at  -2.569894  1.994599  2.119010
      ESP Fit Center  406 is at  -2.697727  1.580176  2.119010
      ESP Fit Center  407 is at  -2.697727  1.146487  2.119010
      ESP Fit Center  408 is at  -2.569894  0.732064  2.119010
      ESP Fit Center  409 is at  -2.325588  0.373733  2.119010
      ESP Fit Center  410 is at  -1.986516  0.103332  2.119010
      ESP Fit Center  411 is at  -0.111593  2.510793  1.713826
      ESP Fit Center  412 is at  -0.447677  2.768679  1.713826
      ESP Fit Center  413 is at  -0.839054  2.930793  1.713826
      ESP Fit Center  414 is at  -1.259054  2.986087  1.713826
      ESP Fit Center  415 is at  -1.679054  2.930793  1.713826
      ESP Fit Center  416 is at  -2.070432  2.768679  1.713826
      ESP Fit Center  417 is at  -2.406516  2.510793  1.713826
      ESP Fit Center  418 is at  -2.664402  2.174709  1.713826
      ESP Fit Center  419 is at  -2.826516  1.783332  1.713826
      ESP Fit Center  420 is at  -2.881810  1.363332  1.713826
      ESP Fit Center  421 is at  -2.826516  0.943332  1.713826
      ESP Fit Center  422 is at  -2.664402  0.551954  1.713826
      ESP Fit Center  423 is at  -1.974364  2.883441  1.279010
      ESP Fit Center  424 is at  -2.329927  2.657794  1.279010
      ESP Fit Center  425 is at  -2.618203  2.350811  1.279010
      ESP Fit Center  426 is at  -2.821079  1.981781  1.279010
      ESP Fit Center  427 is at  -2.925807  1.573891  1.279010
      ESP Fit Center  428 is at   1.900866  2.127482 -1.266892
      ESP Fit Center  429 is at   1.653338  2.468175 -1.266892
      ESP Fit Center  430 is at   2.051426  1.318136 -1.701708
      ESP Fit Center  431 is at   1.996132  1.738136 -1.701708
      ESP Fit Center  432 is at   1.834018  2.129513 -1.701708
      ESP Fit Center  433 is at   1.576132  2.465597 -1.701708
      ESP Fit Center  434 is at   1.240048  2.723483 -1.701708
      ESP Fit Center  435 is at   0.848670  2.885597 -1.701708
      ESP Fit Center  436 is at   0.428670  2.940891 -1.701708
      ESP Fit Center  437 is at   0.008670  2.885597 -1.701708
      ESP Fit Center  438 is at  -0.382707  2.723483 -1.701708
      ESP Fit Center  439 is at  -0.718791  2.465597 -1.701708
      ESP Fit Center  440 is at   1.883593  1.318136 -2.106892
      ESP Fit Center  441 is at   1.818955  1.746982 -2.106892
      ESP Fit Center  442 is at   1.630784  2.137723 -2.106892
      ESP Fit Center  443 is at   1.335800  2.455640 -2.106892
      ESP Fit Center  444 is at   0.960213  2.672485 -2.106892
      ESP Fit Center  445 is at   0.537397  2.768990 -2.106892
      ESP Fit Center  446 is at   0.104920  2.736580 -2.106892
      ESP Fit Center  447 is at  -0.298791  2.578136 -2.106892
      ESP Fit Center  448 is at  -0.637863  2.307734 -2.106892
      ESP Fit Center  449 is at  -0.882170  1.949403 -2.106892
      ESP Fit Center  450 is at  -1.010002  1.534981 -2.106892
      ESP Fit Center  451 is at  -0.298791  0.058136 -2.106892
      ESP Fit Center  452 is at   0.960213 -0.036214 -2.106892
      ESP Fit Center  453 is at   1.335800  0.180631 -2.106892
      ESP Fit Center  454 is at   1.630784  0.498549 -2.106892
      ESP Fit Center  455 is at   1.818955  0.889290 -2.106892
      ESP Fit Center  456 is at   1.616610  1.318136 -2.454832
      ESP Fit Center  457 is at   1.536391  1.747269 -2.454832
      ESP Fit Center  458 is at   1.306568  2.118445 -2.454832
      ESP Fit Center  459 is at   0.958180  2.381535 -2.454832
      ESP Fit Center  460 is at   0.538280  2.501008 -2.454832
      ESP Fit Center  461 is at   0.103575  2.460726 -2.454832
      ESP Fit Center  462 is at  -0.287223  2.266132 -2.454832
      ESP Fit Center  463 is at  -0.581336  1.943505 -2.454832
      ESP Fit Center  464 is at  -0.739042  1.536419 -2.454832
      ESP Fit Center  465 is at  -0.739042  1.099852 -2.454832
      ESP Fit Center  466 is at  -0.581336  0.692766 -2.454832
      ESP Fit Center  467 is at  -0.287223  0.370140 -2.454832
      ESP Fit Center  468 is at   0.103575  0.175545 -2.454832
      ESP Fit Center  469 is at   0.538280  0.135264 -2.454832
      ESP Fit Center  470 is at   0.958180  0.254736 -2.454832
      ESP Fit Center  471 is at   1.306568  0.517826 -2.454832
      ESP Fit Center  472 is at   1.536391  0.889003 -2.454832
      ESP Fit Center  473 is at   1.268670  1.318136 -2.721815
      ESP Fit Center  474 is at   1.156132  1.738136 -2.721815
      ESP Fit Center  475 is at   0.848670  2.045597 -2.721815
      ESP Fit Center  476 is at   0.428670  2.158136 -2.721815
      ESP Fit Center  477 is at   0.008670  2.045597 -2.721815
      ESP Fit Center  478 is at  -0.298791  1.738136 -2.721815
      ESP Fit Center  479 is at  -0.411330  1.318136 -2.721815
      ESP Fit Center  480 is at  -0.298791  0.898136 -2.721815
      ESP Fit Center  481 is at   0.008670  0.590674 -2.721815
      ESP Fit Center  482 is at   0.428670  0.478136 -2.721815
      ESP Fit Center  483 is at   0.848670  0.590674 -2.721815
      ESP Fit Center  484 is at   1.156132  0.898136 -2.721815
      ESP Fit Center  485 is at   0.863486  1.318136 -2.889648
      ESP Fit Center  486 is at   0.646078  1.694697 -2.889648
      ESP Fit Center  487 is at   0.211262  1.694697 -2.889648
      ESP Fit Center  488 is at  -0.006146  1.318136 -2.889648
      ESP Fit Center  489 is at   0.211262  0.941574 -2.889648
      ESP Fit Center  490 is at   0.646078  0.941574 -2.889648
      ESP Fit Center  491 is at   0.428670  1.318136 -2.946892
      ESP Fit Center  492 is at   0.815375  2.147485  1.918934
      ESP Fit Center  493 is at   1.250191  2.147485  1.861690
      ESP Fit Center  494 is at   1.032783  2.524047  1.861690
      ESP Fit Center  495 is at   0.597967  2.524047  1.861690
      ESP Fit Center  496 is at   0.380559  2.147485  1.861690
      ESP Fit Center  497 is at   0.597967  1.770924  1.861690
      ESP Fit Center  498 is at   1.032783  1.770924  1.861690
      ESP Fit Center  499 is at   1.655375  2.147485  1.693857
      ESP Fit Center  500 is at   1.542836  2.567485  1.693857
      ESP Fit Center  501 is at   1.235375  2.874947  1.693857
      ESP Fit Center  502 is at   0.815375  2.987485  1.693857
      ESP Fit Center  503 is at   0.395375  2.874947  1.693857
      ESP Fit Center  504 is at   0.087913  2.567485  1.693857
      ESP Fit Center  505 is at   1.542836  1.727485  1.693857
      ESP Fit Center  506 is at   2.003314  2.147485  1.426874
      ESP Fit Center  507 is at   1.923095  2.576619  1.426874
      ESP Fit Center  508 is at   1.693272  2.947795  1.426874
      ESP Fit Center  509 is at   1.344885  3.210885  1.426874
      ESP Fit Center  510 is at   0.924984  3.330357  1.426874
      ESP Fit Center  511 is at   0.490280  3.290076  1.426874
      ESP Fit Center  512 is at   0.099481  3.095481  1.426874
      ESP Fit Center  513 is at  -0.194632  2.772855  1.426874
      ESP Fit Center  514 is at   1.923095  1.718352  1.426874
      ESP Fit Center  515 is at   2.270297  2.147485  1.078934
      ESP Fit Center  516 is at   2.205659  2.576331  1.078934
      ESP Fit Center  517 is at   2.017488  2.967072  1.078934
      ESP Fit Center  518 is at   1.722504  3.284990  1.078934
      ESP Fit Center  519 is at   1.346918  3.501835  1.078934
      ESP Fit Center  520 is at   0.924101  3.598340  1.078934
      ESP Fit Center  521 is at   0.491624  3.565930  1.078934
      ESP Fit Center  522 is at   0.087913  3.407485  1.078934
      ESP Fit Center  523 is at  -0.251159  3.137084  1.078934
      ESP Fit Center  524 is at   2.438130  2.147485  0.673750
      ESP Fit Center  525 is at   2.382836  2.567485  0.673750
      ESP Fit Center  526 is at   2.220722  2.958863  0.673750
      ESP Fit Center  527 is at   1.962836  3.294947  0.673750
      ESP Fit Center  528 is at   1.626752  3.552833  0.673750
      ESP Fit Center  529 is at   1.235375  3.714947  0.673750
      ESP Fit Center  530 is at   0.815375  3.770241  0.673750
      ESP Fit Center  531 is at   0.395375  3.714947  0.673750
      ESP Fit Center  532 is at   0.003997  3.552833  0.673750
      ESP Fit Center  533 is at  -0.332087  3.294947  0.673750
      ESP Fit Center  534 is at   2.495375  2.147485  0.238934
      ESP Fit Center  535 is at   2.442594  2.565284  0.238934
      ESP Fit Center  536 is at   2.287570  2.956832  0.238934
      ESP Fit Center  537 is at   2.040042  3.297525  0.238934
      ESP Fit Center  538 is at   1.715564  3.565956  0.238934
      ESP Fit Center  539 is at   1.334523  3.745260  0.238934
      ESP Fit Center  540 is at   0.920863  3.824170  0.238934
      ESP Fit Center  541 is at   0.500574  3.797728  0.238934
      ESP Fit Center  542 is at   0.100065  3.667595  0.238934
      ESP Fit Center  543 is at  -0.255498  3.441948  0.238934
      ESP Fit Center  544 is at   2.438130  2.147485 -0.195882
      ESP Fit Center  545 is at   2.382836  2.567485 -0.195882
      ESP Fit Center  546 is at   2.220722  2.958863 -0.195882
      ESP Fit Center  547 is at   1.962836  3.294947 -0.195882
      ESP Fit Center  548 is at   1.626752  3.552833 -0.195882
      ESP Fit Center  549 is at   1.235375  3.714947 -0.195882
      ESP Fit Center  550 is at   0.815375  3.770241 -0.195882
      ESP Fit Center  551 is at   0.395375  3.714947 -0.195882
      ESP Fit Center  552 is at   0.003997  3.552833 -0.195882
[...]
 4344 Fit       0.005783
 4345 Fit       0.006384
 4346 Fit       0.007073
 4347 Fit       0.006325
 4348 Fit       0.005392
 4349 Fit       0.004953
 4350 Fit       0.004408
 4351 Fit       0.006288
 4352 Fit       0.005899
 4353 Fit       0.005242
 4354 Fit       0.004555
 4355 Fit       0.004002
 4356 Fit       0.007712
 4357 Fit       0.007133
 4358 Fit       0.006355
 4359 Fit       0.005586
 4360 Fit       0.004866
 4361 Fit       0.004193
 4362 Fit       0.003598
 4363 Fit       0.008774
 4364 Fit       0.007604
 4365 Fit       0.006612
 4366 Fit       0.005778
 4367 Fit       0.005038
 4368 Fit       0.004344
 4369 Fit       0.003666
 4370 Fit       0.003003
 4371 Fit       0.009009
 4372 Fit       0.007628
 4373 Fit       0.006592
 4374 Fit       0.005756
 4375 Fit       0.005023
 4376 Fit       0.004330
 4377 Fit       0.003637
 4378 Fit       0.002906
 4379 Fit       0.010596
 4380 Fit       0.008705
 4381 Fit       0.007403
 4382 Fit       0.006436
 4383 Fit       0.005650
 4384 Fit       0.004955
 4385 Fit       0.004297
 4386 Fit       0.003639
 4387 Fit       0.002940
 4388 Fit       0.009403
 4389 Fit       0.007848
 4390 Fit       0.006752
 4391 Fit       0.005905
 4392 Fit       0.005186
 4393 Fit       0.004531
 4394 Fit       0.003899
 4395 Fit       0.003263
 4396 Fit       0.002578
 4397 Fit       0.009848
 4398 Fit       0.008123
 4399 Fit       0.006939
 4400 Fit       0.006049
 4401 Fit       0.005320
 4402 Fit       0.004676
 4403 Fit       0.004077
 4404 Fit       0.003505
 4405 Fit       0.002943
 4406 Fit       0.009742
 4407 Fit       0.008012
 4408 Fit       0.006822
 4409 Fit       0.005931
 4410 Fit       0.005208
 4411 Fit       0.004581
 4412 Fit       0.004012
 4413 Fit       0.003488
 4414 Fit       0.003012
 4415 Fit       0.002601
 4416 Fit       0.008930
 4417 Fit       0.007376
 4418 Fit       0.006275
 4419 Fit       0.005434
 4420 Fit       0.004743
 4421 Fit       0.004143
 4422 Fit       0.003610
 4423 Fit       0.003145
 4424 Fit       0.002775
 4425 Fit       0.009647
 4426 Fit       0.007786
 4427 Fit       0.006475
 4428 Fit       0.005502
 4429 Fit       0.004734
 4430 Fit       0.004091
 4431 Fit       0.003536
 4432 Fit       0.003066
 4433 Fit       0.002706
 4434 Fit       0.008073
 4435 Fit       0.006638
 4436 Fit       0.005550
 4437 Fit       0.004702
 4438 Fit       0.004010
 4439 Fit       0.003426
 4440 Fit       0.002938
 4441 Fit       0.002561
 4442 Fit       0.005361
 4443 Fit       0.004436
 4444 Fit       0.003691
 4445 Fit       0.003077
 4446 Fit       0.000835
 4447 Fit       0.000006
 4448 Fit       0.001226
 4449 Fit       0.001849
 4450 Fit       0.001543
 4451 Fit       0.000500
 4452 Fit      -0.000409
 4453 Fit      -0.000991
 4454 Fit       0.000480
 4455 Fit       0.001705
 4456 Fit       0.002404
 4457 Fit       0.002680
 4458 Fit       0.002614
 4459 Fit       0.002178
 4460 Fit       0.001359
 4461 Fit       0.000207
 4462 Fit      -0.001037
 4463 Fit      -0.001935
 4464 Fit      -0.001973
 4465 Fit      -0.002213
 4466 Fit      -0.000387
 4467 Fit       0.001232
 4468 Fit       0.002326
 4469 Fit       0.002928
 4470 Fit       0.003225
 4471 Fit       0.003374
 4472 Fit       0.003398
 4473 Fit       0.003214
 4474 Fit       0.002792
 4475 Fit       0.002136
 4476 Fit       0.001189
 4477 Fit      -0.000039
 4478 Fit      -0.001410
 4479 Fit      -0.002751
 4480 Fit      -0.003804
 4481 Fit      -0.004201
 4482 Fit      -0.003649
 4483 Fit      -0.003741
 4484 Fit      -0.001282
 4485 Fit       0.000905
 4486 Fit       0.002429
 4487 Fit       0.003276
 4488 Fit       0.003649
 4489 Fit       0.003787
 4490 Fit       0.003881
 4491 Fit      -0.001238
 4492 Fit      -0.002824
 4493 Fit      -0.004432
 4494 Fit      -0.005885
 4495 Fit      -0.006841
 4496 Fit      -0.006891
 4497 Fit      -0.005802
 4498 Fit      -0.005702
 4499 Fit      -0.002186
 4500 Fit       0.000895
 4501 Fit       0.002997
 4502 Fit       0.004100
 4503 Fit       0.004490
 4504 Fit       0.004495
 4505 Fit       0.004368
 4506 Fit       0.004317
 4507 Fit      -0.002094
 4508 Fit      -0.003916
 4509 Fit      -0.005891
 4510 Fit      -0.007937
 4511 Fit      -0.009730
 4512 Fit      -0.010765
 4513 Fit      -0.010521
 4514 Fit      -0.008742
 4515 Fit       0.005695
 4516 Fit       0.006046
 4517 Fit       0.005835
 4518 Fit       0.005399
 4519 Fit      -0.007301
 4520 Fit      -0.010003
 4521 Fit      -0.012798
 4522 Fit      -0.015148
 4523 Fit      -0.003070
 4524 Fit      -0.003875
 4525 Fit      -0.004673
 4526 Fit      -0.005436
 4527 Fit      -0.006049
 4528 Fit      -0.006219
 4529 Fit       0.000343
 4530 Fit      -0.000326
 4531 Fit      -0.001011
 4532 Fit      -0.001674
 4533 Fit      -0.002288
 4534 Fit      -0.002827
 4535 Fit      -0.003234
 4536 Fit      -0.003380
 4537 Fit      -0.003003
 4538 Fit      -0.001628
 4539 Fit       0.002116
 4540 Fit       0.001573
 4541 Fit       0.001039
 4542 Fit       0.000472
 4543 Fit      -0.000101
 4544 Fit      -0.000634
 4545 Fit      -0.001077
 4546 Fit      -0.001363
 4547 Fit      -0.001377
 4548 Fit      -0.000912
 4549 Fit       0.000368
 4550 Fit       0.002896
 4551 Fit       0.006312
 4552 Fit       0.003071
 4553 Fit       0.002393
 4554 Fit       0.001830
 4555 Fit       0.001309
 4556 Fit       0.000823
 4557 Fit       0.000415
 4558 Fit       0.000153
 4559 Fit       0.000143
 4560 Fit       0.000545
 4561 Fit       0.001590
 4562 Fit       0.003514
 4563 Fit       0.005726
 4564 Fit       0.007704
 4565 Fit       0.008772
 4566 Fit       0.008679
 4567 Fit       0.007898
 4568 Fit       0.006911
 4569 Fit       0.005989
 4570 Fit       0.005211
 4571 Fit       0.004447
 4572 Fit       0.003659
 4573 Fit       0.002955
 4574 Fit       0.002366
 4575 Fit       0.001879
 4576 Fit       0.001518
 4577 Fit       0.001367
 4578 Fit       0.001563
 4579 Fit       0.002293
 4580 Fit       0.003714
 4581 Fit       0.005241
 4582 Fit       0.006591
 4583 Fit       0.006951
 4584 Fit       0.006432
 4585 Fit       0.005587
 4586 Fit       0.004723
 4587 Fit       0.003897
 4588 Fit       0.003186
 4589 Fit       0.002674
 4590 Fit       0.002463
 4591 Fit       0.002740
 4592 Fit       0.003703
 4593 Fit       0.004837
 4594 Fit       0.005597
 4595 Fit       0.005102
 4596 Fit       0.004176
 4597 Fit       0.003534
 4598 Fit       0.003710
 4599 Fit       0.004489
 4600 Fit      -0.006736
 4601 Fit      -0.004000
 4602 Fit      -0.005618
 4603 Fit      -0.009750
 4604 Fit      -0.003634
 4605 Fit      -0.004771
 4606 Fit      -0.006371
 4607 Fit      -0.008315
 4608 Fit      -0.013801
 4609 Fit      -0.003401
 4610 Fit      -0.004143
 4611 Fit      -0.005255
 4612 Fit      -0.006871
 4613 Fit      -0.009032
 4614 Fit      -0.011559
 4615 Fit      -0.003151
 4616 Fit      -0.003545
 4617 Fit      -0.004227
 4618 Fit      -0.005303
 4619 Fit      -0.006881
 4620 Fit      -0.009072
 4621 Fit      -0.011954
 4622 Fit      -0.015467
 4623 Fit      -0.003153
 4624 Fit      -0.003452
 4625 Fit      -0.004058
 4626 Fit      -0.005035
 4627 Fit      -0.006481
 4628 Fit      -0.008529
 4629 Fit      -0.011346
 4630 Fit      -0.015130
 4631 Fit      -0.020042
 4632 Fit      -0.003079
 4633 Fit      -0.003363
 4634 Fit      -0.003921
 4635 Fit      -0.004804
 4636 Fit      -0.006097
 4637 Fit      -0.007921
 4638 Fit      -0.010447
 4639 Fit      -0.013922
 4640 Fit      -0.018700
 4641 Fit      -0.002909
 4642 Fit      -0.003097
 4643 Fit      -0.003523
 4644 Fit      -0.004219
 4645 Fit      -0.005255
 4646 Fit      -0.006737
 4647 Fit      -0.008815
 4648 Fit      -0.011710
 4649 Fit      -0.015769
 4650 Fit      -0.021560
 4651 Fit      -0.002900
 4652 Fit      -0.003261
 4653 Fit      -0.003822
 4654 Fit      -0.004645
 4655 Fit      -0.005816
 4656 Fit      -0.007455
 4657 Fit      -0.009727
 4658 Fit      -0.012893
 4659 Fit      -0.017374
 4660 Fit      -0.023909
 4661 Fit      -0.002603
 4662 Fit      -0.002969
 4663 Fit      -0.003431
 4664 Fit      -0.004064
 4665 Fit      -0.004945
 4666 Fit      -0.006168
 4667 Fit      -0.007855
 4668 Fit      -0.010181
 4669 Fit      -0.013416
 4670 Fit      -0.018013
 4671 Fit      -0.002866
 4672 Fit      -0.003386
 4673 Fit      -0.004016
 4674 Fit      -0.004853
 4675 Fit      -0.005999
 4676 Fit      -0.007575
 4677 Fit      -0.009750
 4678 Fit      -0.012777
 4679 Fit      -0.017076
 4680 Fit      -0.003206
 4681 Fit      -0.003840
 4682 Fit      -0.004606
 4683 Fit      -0.005617
 4684 Fit      -0.006995
 4685 Fit      -0.008889
 4686 Fit      -0.011509
 4687 Fit      -0.015185
 4688 Fit      -0.004411
 4689 Fit      -0.005299
 4690 Fit      -0.006467
 4691 Fit      -0.008039
 4692 Fit      -0.010167
 4693 Fit      -0.013054
 4694 Fit      -0.016992
 4695 Fit      -0.005520
 4696 Fit      -0.006725
 4697 Fit      -0.008318
 4698 Fit      -0.010403
 4699 Fit      -0.001390
 4700 Fit      -0.001558
 4701 Fit      -0.001816
 4702 Fit      -0.002161
 4703 Fit      -0.000707
 4704 Fit      -0.000742
 4705 Fit      -0.000785
 4706 Fit      -0.000882
 4707 Fit      -0.001061
 4708 Fit      -0.001333
 4709 Fit      -0.001696
 4710 Fit      -0.002125
 4711 Fit      -0.000245
 4712 Fit      -0.000239
 4713 Fit      -0.000241
 4714 Fit      -0.000297
 4715 Fit      -0.000436
 4716 Fit      -0.000673
 4717 Fit      -0.001013
 4718 Fit      -0.001444
 4719 Fit      -0.001942
 4720 Fit       0.000130
 4721 Fit       0.000139
 4722 Fit       0.000192
 4723 Fit       0.000231
 4724 Fit       0.000215
 4725 Fit       0.000119
 4726 Fit      -0.000075
 4727 Fit      -0.000372
 4728 Fit      -0.000772
 4729 Fit      -0.001265
 4730 Fit      -0.001828
 4731 Fit      -0.002414
 4732 Fit       0.000309
 4733 Fit       0.000379
 4734 Fit       0.000488
 4735 Fit       0.000583
 4736 Fit       0.000631
 4737 Fit       0.000604
 4738 Fit       0.000487
 4739 Fit       0.000267
 4740 Fit      -0.000061
 4741 Fit      -0.000495
 4742 Fit      -0.001030
 4743 Fit      -0.001657
 4744 Fit      -0.002355
 4745 Fit       0.000453
 4746 Fit       0.000652
 4747 Fit       0.000813
 4748 Fit       0.000915
 4749 Fit       0.000937
 4750 Fit       0.000862
 4751 Fit       0.000678
 4752 Fit       0.000379
 4753 Fit      -0.000039
 4754 Fit      -0.000575
 4755 Fit      -0.001230
 4756 Fit      -0.002014
 4757 Fit       0.000532
 4758 Fit       0.000817
 4759 Fit       0.001018
 4760 Fit       0.001131
 4761 Fit       0.001143
 4762 Fit       0.001041
 4763 Fit       0.000816
 4764 Fit       0.000462
 4765 Fit      -0.000023
 4766 Fit      -0.000642
 4767 Fit      -0.001411
 4768 Fit       0.000609
 4769 Fit       0.000938
 4770 Fit       0.001152
 4771 Fit       0.001258
 4772 Fit       0.001248
 4773 Fit       0.001114
 4774 Fit       0.000849
 4775 Fit       0.000450
 4776 Fit      -0.000084
 4777 Fit      -0.000759
 4778 Fit      -0.001601
 4779 Fit       0.000726
 4780 Fit       0.001054
 4781 Fit       0.001246
 4782 Fit       0.001305
 4783 Fit       0.001224
 4784 Fit       0.000997
 4785 Fit       0.000623
 4786 Fit       0.000107
 4787 Fit      -0.000546
 4788 Fit       0.000878
 4789 Fit       0.001145
 4790 Fit       0.001276
 4791 Fit       0.001259
 4792 Fit       0.001087
 4793 Fit       0.000765
 4794 Fit       0.000311
 4795 Fit      -0.000234
 4796 Fit       0.000952
 4797 Fit       0.001153
 4798 Fit       0.001250
 4799 Fit       0.001195
 4800 Fit       0.000980
 4801 Fit       0.000641
 4802 Fit       0.000275
 4803 Fit       0.001226
 4804 Fit       0.001258
 4805 Fit       0.001206
 4806 Fit       0.001014
 4807 Fit       0.000827
 4808 Fit       0.001466
 4809 Fit       0.001323
 4810 Fit       0.001284
 4811 Fit       0.001451
 4812 Fit       0.001255
 4813 Fit       0.001844
 4814 Fit       0.001918
 4815 Fit       0.001527
 4816 Fit       0.001073
 4817 Fit       0.000891
 4818 Fit       0.000930
 4819 Fit       0.001716
 4820 Fit       0.002307
 4821 Fit       0.002487
 4822 Fit       0.002303
 4823 Fit       0.001927
 4824 Fit       0.001492
 4825 Fit       0.001060
 4826 Fit       0.000674
 4827 Fit       0.000379
 4828 Fit       0.000240
 4829 Fit       0.000383
 4830 Fit       0.000467
 4831 Fit       0.001476
 4832 Fit       0.002381
 4833 Fit       0.002916
 4834 Fit       0.003105
 4835 Fit       0.002982
 4836 Fit       0.002630
 4837 Fit       0.002202
 4838 Fit       0.001778
 4839 Fit       0.001363
 4840 Fit       0.000960
 4841 Fit       0.000579
 4842 Fit       0.000236
 4843 Fit      -0.000063
 4844 Fit      -0.000311
 4845 Fit      -0.000483
 4846 Fit      -0.000506
 4847 Fit      -0.000233
 4848 Fit       0.002737
 4849 Fit       0.002221
 4850 Fit       0.001781
 4851 Fit       0.001368
 4852 Fit       0.000962
 4853 Fit       0.000567
 4854 Fit       0.000196
 4855 Fit      -0.000142
 4856 Fit      -0.000446
 4857 Fit      -0.000721
 4858 Fit      -0.000975
 4859 Fit      -0.001208
 4860 Fit      -0.001390
 4861 Fit      -0.001418
 4862 Fit      -0.001080
 4863 Fit       0.002483
 4864 Fit       0.001975
 4865 Fit       0.001555
 4866 Fit       0.001140
 4867 Fit       0.000716
 4868 Fit       0.000299
 4869 Fit      -0.000091
 4870 Fit      -0.000446
 4871 Fit      -0.000764
 4872 Fit      -0.001050
 4873 Fit      -0.001315
 4874 Fit      -0.001573
 4875 Fit      -0.001841
 4876 Fit      -0.002134
 4877 Fit      -0.002426
 4878 Fit      -0.002574
 4879 Fit       0.001730
 4880 Fit       0.001351
 4881 Fit       0.000925
 4882 Fit       0.000470
 4883 Fit       0.000022
 4884 Fit      -0.000393
 4885 Fit      -0.000765
 4886 Fit      -0.001094
 4887 Fit      -0.001385
 4888 Fit      -0.001647
 4889 Fit      -0.001889
 4890 Fit      -0.002126
 4891 Fit      -0.002380
 4892 Fit      -0.002687
 4893 Fit      -0.003087
 4894 Fit       0.000807
 4895 Fit       0.000256
 4896 Fit      -0.000269
 4897 Fit      -0.000737
 4898 Fit      -0.001141
 4899 Fit      -0.001485
 4900 Fit      -0.001783
 4901 Fit      -0.002049
 4902 Fit      -0.002289
 4903 Fit       0.002395
 4904 Fit      -0.001375
 4905 Fit       0.002209
 4906 Fit       0.004583
 4907 Fit       0.005682
 4908 Fit      -0.001648
 4909 Fit       0.001929
 4910 Fit       0.004610
 4911 Fit       0.006418
 4912 Fit       0.007440
 4913 Fit       0.007778
 4914 Fit       0.007537
 4915 Fit      -0.001776
 4916 Fit       0.001843
 4917 Fit       0.004649
 4918 Fit       0.006710
 4919 Fit       0.008108
 4920 Fit       0.008937
 4921 Fit       0.009285
 4922 Fit       0.009215
 4923 Fit      -0.001792
 4924 Fit       0.001876
 4925 Fit       0.004755
 4926 Fit       0.006937
 4927 Fit       0.008510
 4928 Fit       0.009561
 4929 Fit       0.010176
 4930 Fit       0.010443
 4931 Fit      -0.006334
 4932 Fit      -0.001714
 4933 Fit       0.001889
 4934 Fit       0.004750
 4935 Fit       0.006969
 4936 Fit       0.008631
 4937 Fit       0.009813
 4938 Fit       0.010588
 4939 Fit       0.011038
 4940 Fit       0.011260
 4941 Fit      -0.006174
 4942 Fit      -0.001542
 4943 Fit       0.002094
 4944 Fit       0.004974
 4945 Fit       0.007212
 4946 Fit       0.008897
 4947 Fit       0.010106
 4948 Fit       0.010910
 4949 Fit       0.011386
 4950 Fit       0.011639
 4951 Fit      -0.001259
 4952 Fit       0.002292
 4953 Fit       0.005109
 4954 Fit       0.007306
 4955 Fit       0.008973
 4956 Fit       0.010180
 4957 Fit       0.010988
 4958 Fit       0.011464
 4959 Fit       0.011689
 4960 Fit      -0.000828
 4961 Fit       0.002611
 4962 Fit       0.005334
 4963 Fit       0.007456
 4964 Fit       0.009061
 4965 Fit       0.010216
 4966 Fit       0.010976
 4967 Fit       0.011393
 4968 Fit       0.011531
 4969 Fit       0.003176
 4970 Fit       0.005810
 4971 Fit       0.007831
 4972 Fit       0.009325
 4973 Fit       0.010354
 4974 Fit       0.010971
 4975 Fit       0.011217
 4976 Fit       0.011141
 4977 Fit       0.003965
 4978 Fit       0.006448
 4979 Fit       0.008307
 4980 Fit       0.009625
 4981 Fit       0.010459
 4982 Fit       0.010849
 4983 Fit       0.010822
 4984 Fit       0.010389
 4985 Fit       0.007187
 4986 Fit       0.008796
 4987 Fit       0.009876
 4988 Fit       0.010467
 4989 Fit       0.010592
 4990 Fit       0.010246
 4991 Fit       0.010331
 4992 Fit       0.010512
 4993 Fit       0.003293
 4994 Fit       0.005337
 4995 Fit       0.007183
 4996 Fit       0.008693
 4997 Fit       0.009764
 4998 Fit       0.010337
 4999 Fit       0.010412
 5000 Fit       0.010059
 5001 Fit      -0.003470
 5002 Fit      -0.004427
 5003 Fit      -0.004818
 5004 Fit      -0.004611
 5005 Fit      -0.003817
 5006 Fit      -0.002503
 5007 Fit      -0.000784
 5008 Fit       0.001200
 5009 Fit       0.005167
 5010 Fit       0.006868
 5011 Fit       0.008367
 5012 Fit       0.009533
 5013 Fit       0.010283
 5014 Fit       0.010603
 5015 Fit       0.010560
 5016 Fit       0.010333
 5017 Fit       0.000475
 5018 Fit      -0.000399
 5019 Fit      -0.000673
 5020 Fit      -0.000354
 5021 Fit       0.000509
 5022 Fit       0.001817
 5023 Fit       0.003426
 5024 Fit       0.006742
 5025 Fit       0.008145
 5026 Fit       0.009353
 5027 Fit       0.010243
 5028 Fit       0.010765
 5029 Fit       0.010968
 5030 Fit       0.011009
 5031 Fit       0.003650
 5032 Fit       0.002891
 5033 Fit       0.002733
 5034 Fit       0.003150
 5035 Fit       0.004058
 5036 Fit       0.005316
 5037 Fit       0.008035
 5038 Fit       0.009226
 5039 Fit       0.010213
 5040 Fit       0.010877
 5041 Fit       0.011236
 5042 Fit       0.011435
 5043 Fit       0.011647
 5044 Fit       0.011272
 5045 Fit       0.007727
 5046 Fit       0.006415
 5047 Fit       0.005626
 5048 Fit       0.005470
 5049 Fit       0.005924
 5050 Fit       0.006851
 5051 Fit       0.009065
 5052 Fit       0.010128
 5053 Fit       0.010927
 5054 Fit       0.011377
 5055 Fit       0.011588
 5056 Fit       0.011551
 5057 Fit       0.011089
 5058 Fit       0.010148
 5059 Fit       0.008913
 5060 Fit       0.007913
 5061 Fit       0.007611
 5062 Fit       0.008084
 5063 Fit       0.009853
 5064 Fit       0.010792
 5065 Fit       0.011196
 5066 Fit       0.010826
 5067 Fit       0.009809
 5068 Fit       0.009248
 5069 Fit       0.010429
 -----------------------------------------------------------------
 Leave Link  602 at Thu Nov  2 13:05:22 2023, MaxMem=   134217728 cpu:               0.4 elap:               0.4

 Test job not archived.
 1\1\GINC-LAC-277\FOpt\RHF\6-31G(d)\C6H13N1\RAHNAMOU\02-Nov-2023\0\\#HF
 /6-31G* SCF=tight Pop=MK iop(6/33=2) iop(6/42=6) opt\\mobley_1036761\\
 0,1\C,0.5720850367,0.5367145962,-0.767975795\C,0.3546265444,-0.1035335
 303,-2.1415876297\C,1.0423916014,0.7041005706,-3.2468304592\C,0.596277
 3392,2.1733381104,-3.2524690325\C,0.8083156984,2.8041679849,-1.8751408
 938\C,0.1261485584,2.0015616606,-0.7633578115\N,1.2465227444,2.9937489
 693,-4.265475342\H,1.6284917907,0.481297155,-0.5094103311\H,0.03578521
 28,-0.0211296359,-0.0050909018\H,0.7215480394,-1.126212637,-2.14343569
 02\H,-0.7133977138,-0.1577133025,-2.3471938175\H,2.1226833528,0.667055
 9698,-3.1036134857\H,0.8424851299,0.2570943362,-4.2186413147\H,-0.4695
 446436,2.2009272096,-3.4707304191\H,1.8789226406,2.8587829568,-1.67468
 4143\H,0.4422481696,3.825169032,-1.8936667803\H,0.3355150032,2.4545724
 171,0.2017003354\H,-0.9533777199,2.047544079,-0.8984001946\H,1.0750730
 158,2.6259254,-5.1823401719\H,2.2412001996,2.9885886581,-4.1336561216\
 \Version=ES64L-G16RevC.01\State=1-A\HF=-289.230035\RMSD=5.330e-09\RMSF
 =1.375e-05\Dipole=0.1803395,-0.5230446,-0.0284058\Quadrupole=1.8847526
 ,-3.4347462,1.5499936,0.3813271,-0.6720341,2.0445237\PG=C01 [X(C6H13N1
 )]\\@


 HE THAT IS UNAWARE OF HIS IGNORANCE WILL BE MISLED BY HIS KNOWLEDGE.

                                        -- WHATLEY
 Job cpu time:       0 days  0 hours  1 minutes 10.0 seconds.
 Elapsed time:       0 days  0 hours  1 minutes  9.8 seconds.
 File lengths (MBytes):  RWF=    272 Int=      0 D2E=      0 Chk=     32 Scr=     32
 Normal termination of Gaussian 16 at Thu Nov  2 13:05:22 2023.
