 Entering Gaussian System, Link 0=/opt/software/Gaussian/g16-AVX2-C.01/g16/g16
 Input=mobley_1017962.com
 Output=mobley_1017962.log
 Initial command:
 /opt/software/Gaussian/g16-AVX2-C.01/g16/l1.exe "/mnt/gs21/scratch/rahnamou/Gau-10728.inp" -scrdir="/mnt/gs21/scratch/rahnamou/"
 Entering Link 1 = /opt/software/Gaussian/g16-AVX2-C.01/g16/l1.exe PID=     10737.
  
 Copyright (c) 1988-2019, Gaussian, Inc.  All Rights Reserved.
  
 This is part of the Gaussian(R) 16 program.  It is based on
 the Gaussian(R) 09 system (copyright 2009, Gaussian, Inc.),
 the Gaussian(R) 03 system (copyright 2003, Gaussian, Inc.),
 the Gaussian(R) 98 system (copyright 1998, Gaussian, Inc.),
 the Gaussian(R) 94 system (copyright 1995, Gaussian, Inc.),
 the Gaussian 92(TM) system (copyright 1992, Gaussian, Inc.),
 the Gaussian 90(TM) system (copyright 1990, Gaussian, Inc.),
 the Gaussian 88(TM) system (copyright 1988, Gaussian, Inc.),
 the Gaussian 86(TM) system (copyright 1986, Carnegie Mellon
 University), and the Gaussian 82(TM) system (copyright 1983,
 Carnegie Mellon University). Gaussian is a federally registered
 trademark of Gaussian, Inc.
  
 This software contains proprietary and confidential information,
 including trade secrets, belonging to Gaussian, Inc.
  
 This software is provided under written license and may be
 used, copied, transmitted, or stored only in accord with that
 written license.
  
 The following legend is applicable only to US Government
 contracts under FAR:
  
                    RESTRICTED RIGHTS LEGEND
  
 Use, reproduction and disclosure by the US Government is
 subject to restrictions as set forth in subparagraphs (a)
 and (c) of the Commercial Computer Software - Restricted
 Rights clause in FAR 52.227-19.
  
 Gaussian, Inc.
 340 Quinnipiac St., Bldg. 40, Wallingford CT 06492
  
  
 ---------------------------------------------------------------
 Warning -- This program may not be used in any manner that
 competes with the business of Gaussian, Inc. or will provide
 assistance to any competitor of Gaussian, Inc.  The licensee
 of this program is prohibited from giving any competitor of
 Gaussian, Inc. access to this program.  By using this program,
 the user acknowledges that Gaussian, Inc. is engaged in the
 business of creating and licensing software in the field of
 computational chemistry and represents and warrants to the
 licensee that it is not a competitor of Gaussian, Inc. and that
 it will not use this program in any manner prohibited above.
 ---------------------------------------------------------------
  

 Cite this work as:
 Gaussian 16, Revision C.01,
 M. J. Frisch, G. W. Trucks, H. B. Schlegel, G. E. Scuseria, 
 M. A. Robb, J. R. Cheeseman, G. Scalmani, V. Barone, 
 G. A. Petersson, H. Nakatsuji, X. Li, M. Caricato, A. V. Marenich, 
 J. Bloino, B. G. Janesko, R. Gomperts, B. Mennucci, H. P. Hratchian, 
 J. V. Ortiz, A. F. Izmaylov, J. L. Sonnenberg, D. Williams-Young, 
 F. Ding, F. Lipparini, F. Egidi, J. Goings, B. Peng, A. Petrone, 
 T. Henderson, D. Ranasinghe, V. G. Zakrzewski, J. Gao, N. Rega, 
 G. Zheng, W. Liang, M. Hada, M. Ehara, K. Toyota, R. Fukuda, 
 J. Hasegawa, M. Ishida, T. Nakajima, Y. Honda, O. Kitao, H. Nakai, 
 T. Vreven, K. Throssell, J. A. Montgomery, Jr., J. E. Peralta, 
 F. Ogliaro, M. J. Bearpark, J. J. Heyd, E. N. Brothers, K. N. Kudin, 
 V. N. Staroverov, T. A. Keith, R. Kobayashi, J. Normand, 
 K. Raghavachari, A. P. Rendell, J. C. Burant, S. S. Iyengar, 
 J. Tomasi, M. Cossi, J. M. Millam, M. Klene, C. Adamo, R. Cammi, 
 J. W. Ochterski, R. L. Martin, K. Morokuma, O. Farkas, 
 J. B. Foresman, and D. J. Fox, Gaussian, Inc., Wallingford CT, 2019.
 
 ******************************************
 Gaussian 16:  ES64L-G16RevC.01  3-Jul-2019
                 2-Nov-2023 
 ******************************************
 %chk=mobley_1017962.chk
 %mem=1GB
 %NProcShared=1
 Will use up to    1 processors via shared memory.
 -------------------------------------------------------
 #HF/6-31G* SCF=tight Pop=MK iop(6/33=2) iop(6/42=6) opt
 -------------------------------------------------------
 1/18=20,19=15,38=1/1,3;
 2/9=110,12=2,17=6,18=5,40=1/2;
 3/5=1,6=6,7=1,11=9,25=1,30=1,71=1/1,2,3;
 4//1;
 5/5=2,32=2,38=5/2;
 6/7=2,8=2,9=2,10=2,15=8,20=1,28=1,33=2,42=6/1,2;
 7//1,2,3,16;
 1/18=20,19=15/3(2);
 2/9=110/2;
 99//99;
 2/9=110/2;
 3/5=1,6=6,7=1,11=9,25=1,30=1,71=1/1,2,3;
 4/5=5,16=3,69=1/1;
 5/5=2,32=2,38=5/2;
 7//1,2,3,16;
 1/18=20,19=15/3(-5);
 2/9=110/2;
 6/7=2,8=2,9=2,10=2,15=8,19=2,20=1,28=1,33=2,42=6/1,2;
 99/9=1/99;
 --------------
 mobley_1017962
 --------------
 Symbolic Z-matrix:
 Charge =  0 Multiplicity = 1
 C                     0.04      1.064     0.143 
 C                    -0.16      1.436     1.604 
 C                     0.924     0.824     2.492 
 C                     0.715     1.202     3.962 
 C                     1.785     0.605     4.876 
 C                     1.595     0.968     6.332 
 O                     0.692     1.666     6.772 
 O                     2.609     0.418     7.063 
 C                     2.583     0.702     8.465 
 H                    -0.74      1.506    -0.484 
 H                     1.012     1.412    -0.22 
 H                     0.001    -0.023     0.02 
 H                    -1.148     1.089     1.931 
 H                    -0.15      2.527     1.702 
 H                     0.913    -0.266     2.378 
 H                     1.909     1.173     2.16 
 H                     0.751     2.295     4.055 
 H                    -0.282     0.887     4.289 
 H                     1.788    -0.487     4.776 
 H                     2.768     0.984     4.574 
 H                     3.434     0.214     8.937 
 H                     1.647     0.334     8.88 
 H                     2.652     1.779     8.595 
 

 GradGradGradGradGradGradGradGradGradGradGradGradGradGradGradGradGradGrad
 Berny optimization.
 Initialization pass.
                           ----------------------------
                           !    Initial Parameters    !
                           ! (Angstroms and Degrees)  !
 --------------------------                            --------------------------
 ! Name  Definition              Value          Derivative Info.                !
 --------------------------------------------------------------------------------
 ! R1    R(1,2)                  1.5208         estimate D2E/DX2                !
 ! R2    R(1,10)                 1.094          estimate D2E/DX2                !
 ! R3    R(1,11)                 1.0944         estimate D2E/DX2                !
 ! R4    R(1,12)                 1.0946         estimate D2E/DX2                !
 ! R5    R(2,3)                  1.5291         estimate D2E/DX2                !
 ! R6    R(2,13)                 1.097          estimate D2E/DX2                !
 ! R7    R(2,14)                 1.0954         estimate D2E/DX2                !
 ! R8    R(3,4)                  1.5321         estimate D2E/DX2                !
 ! R9    R(3,15)                 1.096          estimate D2E/DX2                !
 ! R10   R(3,16)                 1.0965         estimate D2E/DX2                !
 ! R11   R(4,5)                  1.5286         estimate D2E/DX2                !
 ! R12   R(4,17)                 1.0975         estimate D2E/DX2                !
 ! R13   R(4,18)                 1.0955         estimate D2E/DX2                !
 ! R14   R(5,6)                  1.5125         estimate D2E/DX2                !
 ! R15   R(5,19)                 1.0966         estimate D2E/DX2                !
 ! R16   R(5,20)                 1.096          estimate D2E/DX2                !
 ! R17   R(6,7)                  1.2232         estimate D2E/DX2                !
 ! R18   R(6,8)                  1.3657         estimate D2E/DX2                !
 ! R19   R(8,9)                  1.4307         estimate D2E/DX2                !
 ! R20   R(9,21)                 1.0886         estimate D2E/DX2                !
 ! R21   R(9,22)                 1.088          estimate D2E/DX2                !
 ! R22   R(9,23)                 1.087          estimate D2E/DX2                !
 ! A1    A(2,1,10)             110.9765         estimate D2E/DX2                !
 ! A2    A(2,1,11)             110.9571         estimate D2E/DX2                !
 ! A3    A(2,1,12)             110.2526         estimate D2E/DX2                !
 ! A4    A(10,1,11)            108.3407         estimate D2E/DX2                !
 ! A5    A(10,1,12)            108.1433         estimate D2E/DX2                !
 ! A6    A(11,1,12)            108.068          estimate D2E/DX2                !
 ! A7    A(1,2,3)              111.5161         estimate D2E/DX2                !
 ! A8    A(1,2,13)             109.1122         estimate D2E/DX2                !
 ! A9    A(1,2,14)             109.169          estimate D2E/DX2                !
 ! A10   A(3,2,13)             109.801          estimate D2E/DX2                !
 ! A11   A(3,2,14)             109.8884         estimate D2E/DX2                !
 ! A12   A(13,2,14)            107.2524         estimate D2E/DX2                !
 ! A13   A(2,3,4)              111.2067         estimate D2E/DX2                !
 ! A14   A(2,3,15)             109.3006         estimate D2E/DX2                !
 ! A15   A(2,3,16)             109.4881         estimate D2E/DX2                !
 ! A16   A(4,3,15)             110.1079         estimate D2E/DX2                !
 ! A17   A(4,3,16)             109.5435         estimate D2E/DX2                !
 ! A18   A(15,3,16)            107.1019         estimate D2E/DX2                !
 ! A19   A(3,4,5)              112.4473         estimate D2E/DX2                !
 ! A20   A(3,4,17)             108.8152         estimate D2E/DX2                !
 ! A21   A(3,4,18)             109.8517         estimate D2E/DX2                !
 ! A22   A(5,4,17)             108.3793         estimate D2E/DX2                !
 ! A23   A(5,4,18)             110.2586         estimate D2E/DX2                !
 ! A24   A(17,4,18)            106.9121         estimate D2E/DX2                !
 ! A25   A(4,5,6)              113.1981         estimate D2E/DX2                !
 ! A26   A(4,5,19)             109.652          estimate D2E/DX2                !
 ! A27   A(4,5,20)             109.1479         estimate D2E/DX2                !
 ! A28   A(6,5,19)             109.094          estimate D2E/DX2                !
 ! A29   A(6,5,20)             107.1534         estimate D2E/DX2                !
 ! A30   A(19,5,20)            108.4689         estimate D2E/DX2                !
 ! A31   A(5,6,7)              125.1659         estimate D2E/DX2                !
 ! A32   A(5,6,8)              108.9859         estimate D2E/DX2                !
 ! A33   A(7,6,8)              125.8312         estimate D2E/DX2                !
 ! A34   A(6,8,9)              115.5367         estimate D2E/DX2                !
 ! A35   A(8,9,21)             108.7646         estimate D2E/DX2                !
 ! A36   A(8,9,22)             108.8004         estimate D2E/DX2                !
 ! A37   A(8,9,23)             108.2229         estimate D2E/DX2                !
 ! A38   A(21,9,22)            110.8243         estimate D2E/DX2                !
 ! A39   A(21,9,23)            110.0394         estimate D2E/DX2                !
 ! A40   A(22,9,23)            110.1276         estimate D2E/DX2                !
 ! D1    D(10,1,2,3)           179.9873         estimate D2E/DX2                !
 ! D2    D(10,1,2,13)           58.5221         estimate D2E/DX2                !
 ! D3    D(10,1,2,14)          -58.3993         estimate D2E/DX2                !
 ! D4    D(11,1,2,3)           -59.5009         estimate D2E/DX2                !
 ! D5    D(11,1,2,13)          179.0339         estimate D2E/DX2                !
 ! D6    D(11,1,2,14)           62.1124         estimate D2E/DX2                !
 ! D7    D(12,1,2,3)            60.1899         estimate D2E/DX2                !
 ! D8    D(12,1,2,13)          -61.2753         estimate D2E/DX2                !
 ! D9    D(12,1,2,14)         -178.1967         estimate D2E/DX2                !
 ! D10   D(1,2,3,4)           -179.9447         estimate D2E/DX2                !
 ! D11   D(1,2,3,15)           -58.1685         estimate D2E/DX2                !
 ! D12   D(1,2,3,16)            58.8612         estimate D2E/DX2                !
 ! D13   D(13,2,3,4)           -58.8803         estimate D2E/DX2                !
 ! D14   D(13,2,3,15)           62.896          estimate D2E/DX2                !
 ! D15   D(13,2,3,16)          179.9257         estimate D2E/DX2                !
 ! D16   D(14,2,3,4)            58.8599         estimate D2E/DX2                !
 ! D17   D(14,2,3,15)         -179.3639         estimate D2E/DX2                !
 ! D18   D(14,2,3,16)          -62.3342         estimate D2E/DX2                !
 ! D19   D(2,3,4,5)           -179.9617         estimate D2E/DX2                !
 ! D20   D(2,3,4,17)           -59.8836         estimate D2E/DX2                !
 ! D21   D(2,3,4,18)            56.8445         estimate D2E/DX2                !
 ! D22   D(15,3,4,5)            58.7331         estimate D2E/DX2                !
 ! D23   D(15,3,4,17)          178.8112         estimate D2E/DX2                !
 ! D24   D(15,3,4,18)          -64.4607         estimate D2E/DX2                !
 ! D25   D(16,3,4,5)           -58.8002         estimate D2E/DX2                !
 ! D26   D(16,3,4,17)           61.2779         estimate D2E/DX2                !
 ! D27   D(16,3,4,18)          178.0061         estimate D2E/DX2                !
 ! D28   D(3,4,5,6)            179.9868         estimate D2E/DX2                !
 ! D29   D(3,4,5,19)           -57.9438         estimate D2E/DX2                !
 ! D30   D(3,4,5,20)            60.7467         estimate D2E/DX2                !
 ! D31   D(17,4,5,6)            59.6567         estimate D2E/DX2                !
 ! D32   D(17,4,5,19)         -178.2738         estimate D2E/DX2                !
 ! D33   D(17,4,5,20)          -59.5833         estimate D2E/DX2                !
 ! D34   D(18,4,5,6)           -57.0475         estimate D2E/DX2                !
 ! D35   D(18,4,5,19)           65.022          estimate D2E/DX2                !
 ! D36   D(18,4,5,20)         -176.2876         estimate D2E/DX2                !
 ! D37   D(4,5,6,7)             -0.0846         estimate D2E/DX2                !
 ! D38   D(4,5,6,8)           -178.6544         estimate D2E/DX2                !
 ! D39   D(19,5,6,7)          -122.4653         estimate D2E/DX2                !
 ! D40   D(19,5,6,8)            58.9649         estimate D2E/DX2                !
 ! D41   D(20,5,6,7)           120.2968         estimate D2E/DX2                !
 ! D42   D(20,5,6,8)           -58.273          estimate D2E/DX2                !
 ! D43   D(5,6,8,9)            178.603          estimate D2E/DX2                !
 ! D44   D(7,6,8,9)              0.0451         estimate D2E/DX2                !
 ! D45   D(6,8,9,21)          -179.9788         estimate D2E/DX2                !
 ! D46   D(6,8,9,22)            59.2054         estimate D2E/DX2                !
 ! D47   D(6,8,9,23)           -60.4499         estimate D2E/DX2                !
 --------------------------------------------------------------------------------
 Trust Radius=3.00D-01 FncErr=1.00D-07 GrdErr=1.00D-07 EigMax=2.50D+02 EigMin=1.00D-04
 Number of steps in this run=    119 maximum allowed number of steps=    138.
 GradGradGradGradGradGradGradGradGradGradGradGradGradGradGradGradGradGrad

                          Input orientation:                          
 ---------------------------------------------------------------------
 Center     Atomic      Atomic             Coordinates (Angstroms)
 Number     Number       Type             X           Y           Z
 ---------------------------------------------------------------------
      1          6           0        0.040000    1.064000    0.143000
      2          6           0       -0.160000    1.436000    1.604000
      3          6           0        0.924000    0.824000    2.492000
      4          6           0        0.715000    1.202000    3.962000
      5          6           0        1.785000    0.605000    4.876000
      6          6           0        1.595000    0.968000    6.332000
      7          8           0        0.692000    1.666000    6.772000
      8          8           0        2.609000    0.418000    7.063000
      9          6           0        2.583000    0.702000    8.465000
     10          1           0       -0.740000    1.506000   -0.484000
     11          1           0        1.012000    1.412000   -0.220000
     12          1           0        0.001000   -0.023000    0.020000
     13          1           0       -1.148000    1.089000    1.931000
     14          1           0       -0.150000    2.527000    1.702000
     15          1           0        0.913000   -0.266000    2.378000
     16          1           0        1.909000    1.173000    2.160000
     17          1           0        0.751000    2.295000    4.055000
     18          1           0       -0.282000    0.887000    4.289000
     19          1           0        1.788000   -0.487000    4.776000
     20          1           0        2.768000    0.984000    4.574000
     21          1           0        3.434000    0.214000    8.937000
     22          1           0        1.647000    0.334000    8.880000
     23          1           0        2.652000    1.779000    8.595000
 ---------------------------------------------------------------------
                    Distance matrix (angstroms):
                    1          2          3          4          5
     1  C    0.000000
     2  C    1.520824   0.000000
     3  C    2.521281   1.529099   0.000000
     4  C    3.880648   2.525974   1.532144   0.000000
     5  C    5.065273   3.896097   2.544158   1.528628   0.000000
     6  C    6.382081   5.064882   3.900843   2.538908   1.512549
     7  O    6.688135   5.242807   4.368202   2.848144   2.432116
     8  O    7.409688   6.205189   4.888569   3.717270   2.344550
     9  C    8.709396   7.425370   6.200314   4.900656   3.677925
    10  H    1.094026   2.168189   3.477153   4.687895   5.993082
    11  H    1.094375   2.168210   2.776406   4.197789   5.217087
    12  H    1.094632   2.159550   2.771303   4.189246   5.211312
    13  H    2.146838   1.097033   2.162899   2.758351   4.184468
    14  H    2.146381   1.095438   2.162819   2.758886   4.184804
    15  H    2.743402   2.155739   1.096000   2.168706   2.785503
    16  H    2.751969   2.158487   1.096472   2.161870   2.777527
    17  H    4.162286   2.752309   2.153309   1.097540   2.144597
    18  H    4.162250   2.743266   2.165090   1.095520   2.167160
    19  H    5.189007   4.189775   2.771619   2.160242   1.096573
    20  H    5.204051   4.195043   2.785796   2.153341   1.095963
    21  H    9.464469   8.257300   6.943358   5.754974   4.400432
    22  H    8.913502   7.577587   6.447432   5.080233   4.015532
    23  H    8.875251   7.543147   6.414407   5.054660   3.995113
                    6          7          8          9         10
     6  C    0.000000
     7  O    1.223198   0.000000
     8  O    1.365671   2.305878   0.000000
     9  C    2.365711   2.715037   1.430712   0.000000
    10  H    7.224924   7.397686   8.328070   9.579841   0.000000
    11  H    6.592854   7.003926   7.522003   8.854455   1.774271
    12  H    6.585155   6.994262   7.523297   8.860608   1.772269
    13  H    5.187243   5.210932   6.395523   7.534141   2.484467
    14  H    5.187717   5.211064   6.387510   7.519181   2.483775
    15  H    4.197856   4.805070   5.029264   6.385726   3.750125
    16  H    4.188819   4.795277   5.009934   6.358391   3.757503
    17  H    2.767308   2.789482   4.002919   5.034081   4.842326
    18  H    2.775525   2.778634   4.033971   5.067684   4.834713
    19  H    2.139021   3.133790   2.592959   3.956573   6.166882
    20  H    2.113468   3.099372   2.557491   3.905590   6.177533
    21  H    3.276654   3.783397   2.057697   1.088636  10.384930
    22  H    2.626207   2.670190   2.057666   1.088000   9.734262
    23  H    2.626050   2.679123   2.049681   1.087010   9.695795
                   11         12         13         14         15
    11  H    0.000000
    12  H    1.771707   0.000000
    13  H    3.065409   2.491719   0.000000
    14  H    2.507499   3.058500   1.765301   0.000000
    15  H    3.094364   2.539873   2.506702   3.063951   0.000000
    16  H    2.554629   3.106522   3.066716   2.506504   1.763593
    17  H    4.373035   4.713475   3.093867   2.530264   3.065501
    18  H    4.720290   4.374077   2.520104   3.065876   2.531670
    19  H    5.400777   5.101784   4.381540   4.721177   2.562200
    20  H    5.123393   5.423030   4.725625   4.375381   3.134636
    21  H    9.547352   9.557957   8.416911   8.398824   7.043176
    22  H    9.185603   9.018668   7.527991   7.717651   6.570750
    23  H    8.973768   9.154541   7.702272   7.478246   6.771797
                   16         17         18         19         20
    16  H    0.000000
    17  H    2.488146   0.000000
    18  H    3.068374   1.761905   0.000000
    19  H    3.100596   3.055280   2.531787   0.000000
    20  H    2.569241   2.460970   3.064822   1.779057   0.000000
    21  H    7.012349   5.946678   5.988780   4.529309   4.480204
    22  H    6.777239   5.284786   5.010402   4.187689   4.496752
    23  H    6.506036   4.948905   5.286365   4.523938   4.100478
                   21         22         23
    21  H    0.000000
    22  H    1.791931   0.000000
    23  H    1.782614   1.783052   0.000000
 Stoichiometry    C7H14O2
 Framework group  C1[X(C7H14O2)]
 Deg. of freedom    63
 Full point group                 C1      NOp   1
 Largest Abelian subgroup         C1      NOp   1
 Largest concise Abelian subgroup C1      NOp   1
                         Standard orientation:                         
 ---------------------------------------------------------------------
 Center     Atomic      Atomic             Coordinates (Angstroms)
 Number     Number       Type             X           Y           Z
 ---------------------------------------------------------------------
      1          6           0        4.574344   -0.258216    0.010568
      2          6           0        3.258125    0.503671    0.011500
      3          6           0        2.060150   -0.446439   -0.005527
      4          6           0        0.738307    0.328283   -0.005864
      5          6           0       -0.479591   -0.595391   -0.021803
      6          6           0       -1.794440    0.152256   -0.022036
      7          8           0       -1.912624    1.369666   -0.009393
      8          8           0       -2.818945   -0.750628   -0.006340
      9          6           0       -4.134769   -0.189880    0.026906
     10          1           0        5.425020    0.429606    0.022577
     11          1           0        4.648360   -0.912749    0.884505
     12          1           0        4.651519   -0.880160   -0.886899
     13          1           0        3.223241    1.161467   -0.865751
     14          1           0        3.213596    1.143652    0.899434
     15          1           0        2.120282   -1.089398   -0.891081
     16          1           0        2.100788   -1.102119    0.872359
     17          1           0        0.690919    0.947867    0.898826
     18          1           0        0.707619    1.011289   -0.861858
     19          1           0       -0.437065   -1.246575   -0.903066
     20          1           0       -0.465542   -1.224328    0.875624
     21          1           0       -4.860903   -1.000900    0.037111
     22          1           0       -4.270021    0.439367   -0.850306
     23          1           0       -4.228006    0.404971    0.931919
 ---------------------------------------------------------------------
 Rotational constants (GHZ):           6.8037507           0.4854040           0.4609379
 Standard basis: 6-31G(d) (6D, 7F)
 There are   163 symmetry adapted cartesian basis functions of A   symmetry.
 There are   163 symmetry adapted basis functions of A   symmetry.
   163 basis functions,   308 primitive gaussians,   163 cartesian basis functions
    36 alpha electrons       36 beta electrons
       nuclear repulsion energy       449.3914839216 Hartrees.
 NAtoms=   23 NActive=   23 NUniq=   23 SFac= 1.00D+00 NAtFMM=   60 NAOKFM=F Big=F
 Integral buffers will be    131072 words long.
 Raffenetti 1 integral format.
 Two-electron integral symmetry is turned on.
 One-electron integrals computed using PRISM.
 NBasis=   163 RedAO= T EigKep=  2.48D-03  NBF=   163
 NBsUse=   163 1.00D-06 EigRej= -1.00D+00 NBFU=   163
 ExpMin= 1.61D-01 ExpMax= 5.48D+03 ExpMxC= 8.25D+02 IAcc=3 IRadAn=         5 AccDes= 0.00D+00
 Harris functional with IExCor=  205 and IRadAn=       5 diagonalized for initial guess.
 HarFok:  IExCor=  205 AccDes= 0.00D+00 IRadAn=         5 IDoV= 1 UseB2=F ITyADJ=14
 ICtDFT=  3500011 ScaDFX=  1.000000  1.000000  1.000000  1.000000
 FoFCou: FMM=F IPFlag=           0 FMFlag=      100000 FMFlg1=           0
         NFxFlg=           0 DoJE=T BraDBF=F KetDBF=T FulRan=T
         wScrn=  0.000000 ICntrl=       500 IOpCl=  0 I1Cent=   200000004 NGrid=           0
         NMat0=    1 NMatS0=      1 NMatT0=    0 NMatD0=    1 NMtDS0=    0 NMtDT0=    0
 Petite list used in FoFCou.
 Keep R1 ints in memory in canonical form, NReq=91538901.
 Requested convergence on RMS density matrix=1.00D-08 within 128 cycles.
 Requested convergence on MAX density matrix=1.00D-06.
 Requested convergence on             energy=1.00D-06.
 No special actions if energy rises.
 SCF Done:  E(RHF) =  -422.969576042     A.U. after   13 cycles
            NFock= 13  Conv=0.79D-08     -V/T= 2.0022
 SCF density gives NOpUse=  1 NOpAll=  1.

 **********************************************************************

            Population analysis using the SCF Density.

 **********************************************************************

 Orbital symmetries:
 BldTbl:  Degeneracy threshold= 1.00D-02
       Occupied  (A) (A) (A) (A) (A) (A) (A) (A) (A) (A) (A) (A)
                 (A) (A) (A) (A) (A) (A) (A) (A) (A) (A) (A) (A)
                 (A) (A) (A) (A) (A) (A) (A) (A) (A) (A) (A) (A)
       Virtual   (A) (A) (A) (A) (A) (A) (A) (A) (A) (A) (A) (A)
                 (A) (A) (A) (A) (A) (A) (A) (A) (A) (A) (A) (A)
                 (A) (A) (A) (A) (A) (A) (A) (A) (A) (A) (A) (A)
                 (A) (A) (A) (A) (A) (A) (A) (A) (A) (A) (A) (A)
                 (A) (A) (A) (A) (A) (A) (A) (A) (A) (A) (A) (A)
                 (A) (A) (A) (A) (A) (A) (A) (A) (A) (A) (A) (A)
                 (A) (A) (A) (A) (A) (A) (A) (A) (A) (A) (A) (A)
                 (A) (A) (A) (A) (A) (A) (A) (A) (A) (A) (A) (A)
                 (A) (A) (A) (A) (A) (A) (A) (A) (A) (A) (A) (A)
                 (A) (A) (A) (A) (A) (A) (A) (A) (A) (A) (A) (A)
                 (A) (A) (A) (A) (A) (A) (A)
 The electronic state is 1-A.
 Alpha  occ. eigenvalues --  -20.60764 -20.55423 -11.38441 -11.28491 -11.24020
 Alpha  occ. eigenvalues --  -11.22164 -11.22045 -11.21809 -11.21158  -1.44687
 Alpha  occ. eigenvalues --   -1.35114  -1.09288  -1.04286  -0.98076  -0.92792
 Alpha  occ. eigenvalues --   -0.83849  -0.79209  -0.76226  -0.68923  -0.67760
 Alpha  occ. eigenvalues --   -0.66526  -0.65146  -0.61031  -0.59831  -0.57127
 Alpha  occ. eigenvalues --   -0.55569  -0.55405  -0.52251  -0.51723  -0.50308
 Alpha  occ. eigenvalues --   -0.48225  -0.47043  -0.46716  -0.45851  -0.45493
 Alpha  occ. eigenvalues --   -0.43666
 Alpha virt. eigenvalues --    0.18291   0.22321   0.24493   0.26188   0.26803
 Alpha virt. eigenvalues --    0.27497   0.29667   0.30936   0.31518   0.32098
 Alpha virt. eigenvalues --    0.32754   0.33266   0.34047   0.34589   0.35736
 Alpha virt. eigenvalues --    0.37134   0.39123   0.39523   0.43423   0.46073
 Alpha virt. eigenvalues --    0.48047   0.52593   0.57770   0.69274   0.72480
 Alpha virt. eigenvalues --    0.73201   0.75329   0.75537   0.76301   0.77582
 Alpha virt. eigenvalues --    0.78878   0.80600   0.83753   0.85363   0.87531
 Alpha virt. eigenvalues --    0.91773   0.94538   0.96238   0.97966   1.02020
 Alpha virt. eigenvalues --    1.02451   1.02961   1.09979   1.10203   1.11192
 Alpha virt. eigenvalues --    1.11376   1.12265   1.12758   1.15217   1.16755
 Alpha virt. eigenvalues --    1.17934   1.18529   1.19767   1.20546   1.20691
 Alpha virt. eigenvalues --    1.21345   1.22309   1.23322   1.24511   1.26781
 Alpha virt. eigenvalues --    1.28296   1.30354   1.34805   1.38465   1.41881
 Alpha virt. eigenvalues --    1.53896   1.57381   1.63206   1.65061   1.66440
 Alpha virt. eigenvalues --    1.72097   1.72463   1.78408   1.79157   1.82863
 Alpha virt. eigenvalues --    1.87395   1.93126   1.98481   2.01097   2.04905
 Alpha virt. eigenvalues --    2.09710   2.11813   2.16317   2.16928   2.21099
 Alpha virt. eigenvalues --    2.24264   2.25195   2.26946   2.30585   2.31953
 Alpha virt. eigenvalues --    2.32381   2.35351   2.36017   2.37817   2.40330
 Alpha virt. eigenvalues --    2.46052   2.46645   2.54051   2.56127   2.59895
 Alpha virt. eigenvalues --    2.62759   2.63881   2.66914   2.72179   2.72619
 Alpha virt. eigenvalues --    2.75654   2.79851   2.82274   2.90930   2.93589
 Alpha virt. eigenvalues --    2.97328   3.02092   3.08140   3.10368   3.16829
 Alpha virt. eigenvalues --    3.29812   3.41685   3.50981   4.39232   4.53652
 Alpha virt. eigenvalues --    4.57933   4.63132   4.69159   4.74582   4.81456
 Alpha virt. eigenvalues --    4.90234   5.02385
          Condensed to atoms (all electrons):
               1          2          3          4          5          6
     1  C    5.102503   0.340226  -0.061766   0.004475  -0.000093   0.000001
     2  C    0.340226   5.061041   0.354114  -0.056646   0.004171  -0.000068
     3  C   -0.061766   0.354114   5.109331   0.339570  -0.051170   0.003960
     4  C    0.004475  -0.056646   0.339570   5.096590   0.317553  -0.047979
     5  C   -0.000093   0.004171  -0.051170   0.317553   5.236669   0.388894
     6  C    0.000001  -0.000068   0.003960  -0.047979   0.388894   4.117992
     7  O    0.000000   0.000002   0.000272   0.005350  -0.076646   0.558559
     8  O   -0.000000   0.000000  -0.000030   0.002828  -0.097256   0.268441
     9  C    0.000000  -0.000000   0.000001  -0.000130   0.005293  -0.028091
    10  H    0.394788  -0.037371   0.004839  -0.000101   0.000001  -0.000000
    11  H    0.391769  -0.038883  -0.004248  -0.000065  -0.000001  -0.000000
    12  H    0.391815  -0.039861  -0.004390  -0.000067  -0.000000  -0.000000
    13  H   -0.040916   0.400922  -0.042360  -0.003318  -0.000046  -0.000002
    14  H   -0.040977   0.400666  -0.042235  -0.003145  -0.000047  -0.000002
    15  H   -0.003108  -0.040530   0.394102  -0.039362  -0.003602  -0.000100
    16  H   -0.003038  -0.040047   0.394622  -0.039931  -0.003194  -0.000092
    17  H   -0.000051  -0.003294  -0.042725   0.402276  -0.041150  -0.002810
    18  H   -0.000044  -0.003232  -0.041019   0.401091  -0.038049  -0.002807
    19  H   -0.000000  -0.000065  -0.002942  -0.036996   0.382333  -0.027392
    20  H   -0.000000  -0.000066  -0.002489  -0.038055   0.384679  -0.030485
    21  H   -0.000000   0.000000  -0.000000  -0.000000   0.000024   0.003473
    22  H    0.000000   0.000000  -0.000000   0.000008  -0.000086  -0.005243
    23  H    0.000000   0.000000  -0.000000   0.000009  -0.000095  -0.005246
               7          8          9         10         11         12
     1  C    0.000000  -0.000000   0.000000   0.394788   0.391769   0.391815
     2  C    0.000002   0.000000  -0.000000  -0.037371  -0.038883  -0.039861
     3  C    0.000272  -0.000030   0.000001   0.004839  -0.004248  -0.004390
     4  C    0.005350   0.002828  -0.000130  -0.000101  -0.000065  -0.000067
     5  C   -0.076646  -0.097256   0.005293   0.000001  -0.000001  -0.000000
     6  C    0.558559   0.268441  -0.028091  -0.000000  -0.000000  -0.000000
     7  O    8.150399  -0.067787   0.002672   0.000000  -0.000000  -0.000000
     8  O   -0.067787   8.455830   0.165451   0.000000  -0.000000  -0.000000
     9  C    0.002672   0.165451   4.853686  -0.000000  -0.000000  -0.000000
    10  H    0.000000   0.000000  -0.000000   0.535959  -0.026857  -0.027067
    11  H   -0.000000  -0.000000  -0.000000  -0.026857   0.548318  -0.029130
    12  H   -0.000000  -0.000000  -0.000000  -0.027067  -0.029130   0.550289
    13  H   -0.000001  -0.000000   0.000000  -0.002621   0.004296  -0.003095
    14  H   -0.000001  -0.000000   0.000000  -0.002693  -0.002908   0.004387
    15  H   -0.000001  -0.000001   0.000000  -0.000061   0.000194   0.002662
    16  H   -0.000001  -0.000001   0.000000  -0.000061   0.002569   0.000188
    17  H    0.001798   0.000011  -0.000004   0.000001   0.000015  -0.000002
    18  H    0.001948   0.000024  -0.000003   0.000000  -0.000002   0.000015
    19  H    0.001155   0.001446  -0.000167   0.000000   0.000000  -0.000002
    20  H    0.001096   0.001678  -0.000183   0.000000  -0.000002   0.000000
    21  H    0.000289  -0.028019   0.393573   0.000000  -0.000000  -0.000000
    22  H    0.003325  -0.034064   0.395867  -0.000000   0.000000  -0.000000
    23  H    0.003327  -0.035027   0.396540  -0.000000  -0.000000   0.000000
              13         14         15         16         17         18
     1  C   -0.040916  -0.040977  -0.003108  -0.003038  -0.000051  -0.000044
     2  C    0.400922   0.400666  -0.040530  -0.040047  -0.003294  -0.003232
     3  C   -0.042360  -0.042235   0.394102   0.394622  -0.042725  -0.041019
     4  C   -0.003318  -0.003145  -0.039362  -0.039931   0.402276   0.401091
     5  C   -0.000046  -0.000047  -0.003602  -0.003194  -0.041150  -0.038049
     6  C   -0.000002  -0.000002  -0.000100  -0.000092  -0.002810  -0.002807
     7  O   -0.000001  -0.000001  -0.000001  -0.000001   0.001798   0.001948
     8  O   -0.000000  -0.000000  -0.000001  -0.000001   0.000011   0.000024
     9  C    0.000000   0.000000   0.000000   0.000000  -0.000004  -0.000003
    10  H   -0.002621  -0.002693  -0.000061  -0.000061   0.000001   0.000000
    11  H    0.004296  -0.002908   0.000194   0.002569   0.000015  -0.000002
    12  H   -0.003095   0.004387   0.002662   0.000188  -0.000002   0.000015
    13  H    0.556117  -0.030010  -0.002648   0.004303   0.000271   0.002138
    14  H   -0.030010   0.555575   0.004332  -0.002687   0.002119   0.000274
    15  H   -0.002648   0.004332   0.562969  -0.031141   0.004115  -0.002068
    16  H    0.004303  -0.002687  -0.031141   0.562905  -0.002568   0.004001
    17  H    0.000271   0.002119   0.004115  -0.002568   0.533043  -0.025196
    18  H    0.002138   0.000274  -0.002068   0.004001  -0.025196   0.524275
    19  H    0.000016  -0.000003   0.002177   0.000293   0.003921  -0.001603
    20  H   -0.000004   0.000016   0.000285   0.001973  -0.002364   0.003727
    21  H    0.000000   0.000000   0.000000   0.000000  -0.000000   0.000000
    22  H   -0.000000   0.000000   0.000000  -0.000000  -0.000000  -0.000001
    23  H    0.000000  -0.000000  -0.000000   0.000000  -0.000001  -0.000000
              19         20         21         22         23
     1  C   -0.000000  -0.000000  -0.000000   0.000000   0.000000
     2  C   -0.000065  -0.000066   0.000000   0.000000   0.000000
     3  C   -0.002942  -0.002489  -0.000000  -0.000000  -0.000000
     4  C   -0.036996  -0.038055  -0.000000   0.000008   0.000009
     5  C    0.382333   0.384679   0.000024  -0.000086  -0.000095
     6  C   -0.027392  -0.030485   0.003473  -0.005243  -0.005246
     7  O    0.001155   0.001096   0.000289   0.003325   0.003327
     8  O    0.001446   0.001678  -0.028019  -0.034064  -0.035027
     9  C   -0.000167  -0.000183   0.393573   0.395867   0.396540
    10  H    0.000000   0.000000   0.000000  -0.000000  -0.000000
    11  H    0.000000  -0.000002  -0.000000   0.000000  -0.000000
    12  H   -0.000002   0.000000  -0.000000  -0.000000   0.000000
    13  H    0.000016  -0.000004   0.000000  -0.000000   0.000000
    14  H   -0.000003   0.000016   0.000000   0.000000  -0.000000
    15  H    0.002177   0.000285   0.000000   0.000000  -0.000000
    16  H    0.000293   0.001973   0.000000  -0.000000   0.000000
    17  H    0.003921  -0.002364  -0.000000  -0.000000  -0.000001
    18  H   -0.001603   0.003727   0.000000  -0.000001  -0.000000
    19  H    0.497258  -0.019154  -0.000006  -0.000005   0.000002
    20  H   -0.019154   0.499523  -0.000008   0.000003  -0.000004
    21  H   -0.000006  -0.000008   0.502779  -0.028480  -0.029600
    22  H   -0.000005   0.000003  -0.028480   0.517016  -0.031925
    23  H    0.000002  -0.000004  -0.029600  -0.031925   0.519669
 Mulliken charges:
               1
     1  C   -0.475582
     2  C   -0.301080
     3  C   -0.305436
     4  C   -0.303956
     5  C   -0.408183
     6  C    0.808996
     7  O   -0.585756
     8  O   -0.633523
     9  C   -0.184507
    10  H    0.161247
    11  H    0.154933
    12  H    0.154258
    13  H    0.156956
    14  H    0.157337
    15  H    0.151787
    16  H    0.151907
    17  H    0.172596
    18  H    0.176531
    19  H    0.199733
    20  H    0.199831
    21  H    0.185975
    22  H    0.183585
    23  H    0.182353
 Sum of Mulliken charges =  -0.00000
 Mulliken charges with hydrogens summed into heavy atoms:
               1
     1  C   -0.005144
     2  C    0.013213
     3  C   -0.001742
     4  C    0.045170
     5  C   -0.008619
     6  C    0.808996
     7  O   -0.585756
     8  O   -0.633523
     9  C    0.367405
 DipInt: DoE/N= T F RetVal/Mat= T F Init=T NMatP=  1 IDeriv=0 Min/MaxMlt=  0  4
 Entering OneElI...
 OneElI was handed   134146946 working-precision words.
 Multipole integrals L=0 to 4 MinM= 0 MaxM= 0.
 Requested accuracy = 0.1000D-12
 PrtBox:  NBox=     1 Levels=  1 BoxLen=   35.86 SMaxX=       19.44
          Shift=            9.185776            2.355684            1.706547
 Box      1 Number                   0 centers from      1 to     64:
 ShPair: Thresh= 1.00D-13 NBox=     1 BxSize= 3.59D+01 RnKept= 1.96D+01
         NSMCal=                 2080 NSMKep=                1792
 PrmmSu-InSpLW:  IPartL=    0 NPrtUS=    1 NPrtUL=    1 DoSpLW=F IThBeg=    0 IThEnd=    0 NThAct=    1.
 PrSmSu:  IncTry=   512 NBBP=           1792 NTPThr=   100 NPartT=    1 Incr=          17 LDynOK=F GPUOK=F.
 PrsmSu:  NPrtUS=   1 ThrOK=F IAlg=2 LenDen=           0 ISkipM=0 DoSpLW=F IThBeg=    0 IThEnd=    0.
 Prism:   IPart=     0 DynPar=F LinDyn=F Incr=          17.
 PRISM was handed   133995887 working-precision words and  1792 shell-pairs
 IPart=  0 NShTot=        1792 NBatch=          40 AvBLen=        44.8
 PrsmSu-ThDecC:  IPartSL=    0    0 NPrtUSL=    1    1 IThBeg=    0 IThEnd=    0 CPU=   -1 GPU=   -1 NThAct=    1.
 PrSmSu:  NxtVal=             18.
 Electronic moments (au):
        -72.00000000         -0.12024862         -0.69687845          0.01014854
      -2170.61983994       -185.82407423        -74.66431784          2.38010866
         -0.11535741         -0.03711500      -2283.87389658        -90.27600099
         -1.62139927        126.94622962        373.08965188        -41.58395509
        -74.53906207          8.13796500          1.81589513         -3.03148824
    -123255.76708436      -1246.49890573       -341.21379380       -693.40945976
         66.53545650        321.86451538          2.83513451          7.33979278
         -3.61234465      -4453.11551245      -2422.36797749       -253.78465951
         16.81970695         -6.37451279         56.77636393
 Electronic spatial extent (au):  <R**2>=           2431.1082
 DipInt: DoE/N= F T RetVal/Mat= T F Init=T NMatP=  1 IDeriv=0 Min/MaxMlt=  0  4
 Nuclear    moments (au):
         72.00000000          0.00000000         -0.00000000          0.00000000
       2133.76134052        139.07901057         33.64580519         -0.00000000
         -0.00000000         -0.00000000       2162.70368880         84.74486609
          1.65256458       -122.60381391       -375.04710633         42.49687868
         61.94999504         -7.32668619         -1.86262037          3.16054577
     116147.29478133        605.81267905         94.25419921        799.90545536
        -72.71312280       -289.18192824         -3.31667706         -7.98754423
          3.75684775       3002.06695684       1108.71462622        119.69097943
        -19.43456387          6.07307701        -66.91909158
 Total      moments (au):
         -0.00000000         -0.12024862         -0.69687845          0.01014854
        -36.85849942        -46.74506366        -41.01851265          2.38010866
         -0.11535741         -0.03711500       -121.17020777         -5.53113490
          0.03116532          4.34241571         -1.95745446          0.91292360
        -12.58906703          0.81127881         -0.04672524          0.12905753
      -7108.47230303       -640.68622668       -246.95959459        106.49599560
         -6.17766630         32.68258713         -0.48154256         -0.64775145
          0.14450310      -1451.04855562      -1313.65335126       -134.09368008
         -2.61485692         -0.30143578        -10.14272764
 Traceless Quadrup. (au):
          4.68219249         -5.20437175          0.52217926          2.38010866
         -0.11535741         -0.03711500
 Charge=             -0.0000 electrons
 Dipole moment (field-independent basis, Debye):
    X=             -0.3056    Y=             -1.7713    Z=              0.0258  Tot=              1.7976
 Quadrupole moment (field-independent basis, Debye-Ang):
   XX=            -49.5759   YY=            -62.8737   ZZ=            -55.1713
   XY=              3.2013   XZ=             -0.1552   YZ=             -0.0499
 Traceless Quadrupole moment (field-independent basis, Debye-Ang):
   XX=              6.2977   YY=             -7.0001   ZZ=              0.7023
   XY=              3.2013   XZ=             -0.1552   YZ=             -0.0499
 Octapole moment (field-independent basis, Debye-Ang**2):
  XXX=            -86.2443  YYY=             -3.9368  ZZZ=              0.0222  XYY=              3.0908
  XXY=             -1.3932  XXZ=              0.6498  XZZ=             -8.9604  YZZ=              0.5774
  YYZ=             -0.0333  XYZ=              0.0919
 Hexadecapole moment (field-independent basis, Debye-Ang**3):
 XXXX=          -2677.3915 YYYY=           -241.3132 ZZZZ=            -93.0168 XXXY=             40.1115
 XXXZ=             -2.3268 YYYX=             12.3098 YYYZ=             -0.1814 ZZZX=             -0.2440
 ZZZY=              0.0544 XXYY=           -546.5345 XXZZ=           -494.7848 YYZZ=            -50.5061
 XXYZ=             -0.9849 YYXZ=             -0.1135 ZZXY=             -3.8202
 N-N= 4.493914839216D+02 E-N=-1.888642205639D+03  KE= 4.220487420565D+02
 Entering OneElI...
 OneElI was handed   134159551 working-precision words.
 Calculate electrostatic properties
    NBasis =   163  MinDer = 0  MaxDer = 0
    NGrid  =    23  NMatD  =   1
 Requested accuracy = 0.1000D-12
 PrtBox:  NBox=     1 Levels=  1 BoxLen=   29.89 SMaxX=       19.44
          Shift=            9.185776            2.355684            1.706547
 Box      1 Number                   0 centers from      1 to     64:
 ShPair: Thresh= 1.00D-13 NBox=     1 BxSize= 2.99D+01 RnKept= 1.81D+01
         NSMCal=                 2080 NSMKep=                1636
 PrmmSu-InSpLW:  IPartL=    0 NPrtUS=    1 NPrtUL=    1 DoSpLW=F IThBeg=    0 IThEnd=    0 NThAct=    1.
 PrSmSu:  IncTry=   512 NBBP=          37628 NTPThr=   100 NPartT=    1 Incr=         376 LDynOK=F GPUOK=F.
 PrsmSu:  NPrtUS=   1 ThrOK=F IAlg=2 LenDen=           0 ISkipM=0 DoSpLW=F IThBeg=    0 IThEnd=    0.
 Prism:   IPart=     0 DynPar=F LinDyn=F Incr=         376.
 PRISM was handed   134019949 working-precision words and  1636 shell-pairs
 IPart=  0 NShTot=       37628 NBatch=        1636 AvBLen=        23.0
 PrsmSu-ThDecC:  IPartSL=    0    0 NPrtUSL=    1    1 IThBeg=    0 IThEnd=    0 CPU=   -1 GPU=   -1 NThAct=    1.
 PrSmSu:  NxtVal=            377.
 --------------------------------------------------------
       Center         ----      EFG at Nuclei      ----
                      3XX-RR        3YY-RR        3ZZ-RR
 --------------------------------------------------------
     1   Atom        0.001745     -0.004677      0.002932
     2   Atom       -0.007114     -0.011277      0.018391
     3   Atom        0.006928     -0.015399      0.008470
     4   Atom       -0.034066     -0.007799      0.041864
     5   Atom       -0.042855      0.017221      0.025634
     6   Atom        0.227656      0.322816     -0.550472
     7   Atom        1.714161     -0.814425     -0.899736
     8   Atom       -1.623461      0.289768      1.333693
     9   Atom       -0.369220      0.136691      0.232529
    10   Atom       -0.124186     -0.029204      0.153389
    11   Atom        0.144536     -0.008495     -0.136041
    12   Atom        0.144116      0.006896     -0.151012
    13   Atom        0.140630     -0.008452     -0.132178
    14   Atom        0.141767     -0.000531     -0.141236
    15   Atom        0.140144     -0.000846     -0.139298
    16   Atom        0.140406     -0.006907     -0.133500
    17   Atom        0.138244      0.010740     -0.148984
    18   Atom        0.140383     -0.018614     -0.121769
    19   Atom        0.138037     -0.005390     -0.132648
    20   Atom        0.138601      0.004378     -0.142980
    21   Atom       -0.057478     -0.102953      0.160431
    22   Atom        0.128205      0.009537     -0.137742
    23   Atom        0.132647      0.024916     -0.157563
 --------------------------------------------------------
                        XY            XZ            YZ
 --------------------------------------------------------
     1   Atom        0.006626      0.000070     -0.000081
     2   Atom       -0.002813     -0.000338      0.001026
     3   Atom        0.009191      0.000130      0.000024
     4   Atom       -0.035832     -0.001220     -0.003054
     5   Atom        0.068695     -0.001694      0.000812
     6   Atom       -0.222383     -0.011294      0.006724
     7   Atom        0.146118     -0.035140     -0.011868
     8   Atom       -0.373326      0.067333      0.006855
     9   Atom        0.233060      0.017810     -0.006397
    10   Atom       -0.218222     -0.003995     -0.003152
    11   Atom        0.020153     -0.022349      0.215504
    12   Atom        0.020354      0.024298     -0.209827
    13   Atom        0.008128     -0.012510      0.210931
    14   Atom        0.010265      0.015976     -0.210265
    15   Atom        0.013024      0.019081     -0.210517
    16   Atom        0.008997     -0.012885      0.211961
    17   Atom        0.005214      0.015259     -0.202601
    18   Atom        0.002643     -0.010105      0.214658
    19   Atom        0.012330      0.011764     -0.210702
    20   Atom        0.006678     -0.004058      0.208063
    21   Atom       -0.216746      0.002922      0.002501
    22   Atom        0.042463     -0.043346      0.212101
    23   Atom        0.031332      0.031903     -0.209119
 --------------------------------------------------------


 ---------------------------------------------------------------------------------
              Nuclear Quadrupole Coupling Constant in Principal Axis System
 ---------------------------------------------------------------------------------

       Atom             a.u.   MegaHertz   Gauss  10(-4) cm-1        Axes


 ---------------------------------------------------------------------------------

 No NMR shielding tensors so no spin-rotation constants.
 Leave Link  601 at Thu Nov  2 13:03:45 2023, MaxMem=   134217728 cpu:               0.2 elap:               0.2
 FitSet:  NAtFit=    23 NAtPot=    23 NAtFrz=     0 MDM=    27 TotChg=   0.00000
 Merz-Kollman atomic radii used.
 Atom Element Radius
    1     6    1.50
    2     6    1.50
    3     6    1.50
    4     6    1.50
    5     6    1.50
    6     6    1.50
    7     8    1.40
    8     8    1.40
    9     6    1.50
   10     1    1.20
   11     1    1.20
   12     1    1.20
   13     1    1.20
   14     1    1.20
   15     1    1.20
   16     1    1.20
   17     1    1.20
   18     1    1.20
   19     1    1.20
   20     1    1.20
   21     1    1.20
   22     1    1.20
   23     1    1.20
 Generate VDW surfaces: Layer= 4 Dens= 6 Start= 1.400 Inc= 0.200

 **********************************************************************

            Electrostatic Properties Using The SCF Density.

 **********************************************************************

       Atomic Center    1 is at   4.574344 -0.258216  0.010568
       Atomic Center    2 is at   3.258125  0.503671  0.011500
       Atomic Center    3 is at   2.060150 -0.446439 -0.005527
       Atomic Center    4 is at   0.738307  0.328283 -0.005864
       Atomic Center    5 is at  -0.479591 -0.595391 -0.021803
       Atomic Center    6 is at  -1.794440  0.152256 -0.022036
       Atomic Center    7 is at  -1.912624  1.369666 -0.009393
       Atomic Center    8 is at  -2.818945 -0.750628 -0.006340
       Atomic Center    9 is at  -4.134769 -0.189880  0.026906
       Atomic Center   10 is at   5.425020  0.429606  0.022577
       Atomic Center   11 is at   4.648360 -0.912749  0.884505
       Atomic Center   12 is at   4.651519 -0.880160 -0.886899
       Atomic Center   13 is at   3.223241  1.161467 -0.865751
       Atomic Center   14 is at   3.213596  1.143652  0.899434
       Atomic Center   15 is at   2.120282 -1.089398 -0.891081
       Atomic Center   16 is at   2.100788 -1.102119  0.872359
       Atomic Center   17 is at   0.690919  0.947867  0.898826
       Atomic Center   18 is at   0.707619  1.011289 -0.861858
       Atomic Center   19 is at  -0.437065 -1.246575 -0.903066
       Atomic Center   20 is at  -0.465542 -1.224328  0.875624
       Atomic Center   21 is at  -4.860903 -1.000900  0.037111
       Atomic Center   22 is at  -4.270021  0.439367 -0.850306
       Atomic Center   23 is at  -4.228006  0.404971  0.931919
      ESP Fit Center   24 is at   4.976161  0.437753  1.950715
      ESP Fit Center   25 is at   4.574344  0.545419  1.950715
      ESP Fit Center   26 is at   5.662257  0.163244  1.756655
      ESP Fit Center   27 is at   5.436544  0.527783  1.756655
      ESP Fit Center   28 is at   5.094386  0.786169  1.756655
      ESP Fit Center   29 is at   4.681993  0.903505  1.756655
      ESP Fit Center   30 is at   4.785670  1.211594  1.495493
      ESP Fit Center   31 is at   6.335173 -1.072862  0.814204
      ESP Fit Center   32 is at   6.469131 -0.675290  0.814204
      ESP Fit Center   33 is at   6.264828 -1.434828  0.420258
      ESP Fit Center   34 is at   6.467074 -1.070451  0.420258
      ESP Fit Center   35 is at   3.770708 -2.198363  0.010568
      ESP Fit Center   36 is at   4.164654 -2.317865  0.010568
      ESP Fit Center   37 is at   4.574344 -2.358216  0.010568
      ESP Fit Center   38 is at   4.984033 -2.317865  0.010568
      ESP Fit Center   39 is at   5.377979 -2.198363  0.010568
      ESP Fit Center   40 is at   5.741041 -2.004302  0.010568
      ESP Fit Center   41 is at   6.059268 -1.743140  0.010568
      ESP Fit Center   42 is at   6.320430 -1.424913  0.010568
      ESP Fit Center   43 is at   6.514491 -1.061851  0.010568
      ESP Fit Center   44 is at   6.264828 -1.434828 -0.399121
      ESP Fit Center   45 is at   6.467074 -1.070451 -0.399121
      ESP Fit Center   46 is at   6.335173 -1.072862 -0.793067
      ESP Fit Center   47 is at   6.469131 -0.675290 -0.793067
      ESP Fit Center   48 is at   5.662257  0.163244 -1.735518
      ESP Fit Center   49 is at   5.436544  0.527783 -1.735518
      ESP Fit Center   50 is at   5.094386  0.786169 -1.735518
      ESP Fit Center   51 is at   4.681993  0.903505 -1.735518
      ESP Fit Center   52 is at   4.976161  0.437753 -1.929579
      ESP Fit Center   53 is at   4.574344  0.545419 -1.929579
      ESP Fit Center   54 is at   3.258125 -0.299964  1.951647
      ESP Fit Center   55 is at   4.677155  1.996490  0.421190
      ESP Fit Center   56 is at   4.743049  1.988596  0.011500
      ESP Fit Center   57 is at   4.424822  2.249757  0.011500
      ESP Fit Center   58 is at   4.061760  2.443818  0.011500
      ESP Fit Center   59 is at   3.667814  2.563320  0.011500
      ESP Fit Center   60 is at   3.258125  2.603671  0.011500
      ESP Fit Center   61 is at   2.848435  2.563320  0.011500
      ESP Fit Center   62 is at   2.454490  2.443818  0.011500
      ESP Fit Center   63 is at   2.091427  2.249757  0.011500
      ESP Fit Center   64 is at   4.677155  1.996490 -0.398189
      ESP Fit Center   65 is at   3.258125 -0.299964 -1.928647
      ESP Fit Center   66 is at   2.060150  0.357196  1.934620
      ESP Fit Center   67 is at   0.893453 -2.192526 -0.005527
      ESP Fit Center   68 is at   1.256515 -2.386587 -0.005527
      ESP Fit Center   69 is at   1.650460 -2.506089 -0.005527
      ESP Fit Center   70 is at   2.060150 -2.546439 -0.005527
      ESP Fit Center   71 is at   2.469840 -2.506089 -0.005527
      ESP Fit Center   72 is at   2.863785 -2.386587 -0.005527
      ESP Fit Center   73 is at   3.226848 -2.192526 -0.005527
      ESP Fit Center   74 is at   2.060150  0.357196 -1.945674
      ESP Fit Center   75 is at   0.738307 -0.475352  1.934283
      ESP Fit Center   76 is at   1.541942  2.268430 -0.005864
      ESP Fit Center   77 is at  -0.065328  2.268430 -0.005864
      ESP Fit Center   78 is at   0.738307 -0.475352 -1.946011
      ESP Fit Center   79 is at  -0.479591  0.208244  1.918344
      ESP Fit Center   80 is at  -0.881409  0.100577  1.918344
      ESP Fit Center   81 is at  -1.646289 -2.341477 -0.021803
      ESP Fit Center   82 is at  -1.283227 -2.535538 -0.021803
      ESP Fit Center   83 is at  -0.889281 -2.655040 -0.021803
      ESP Fit Center   84 is at  -0.479591 -2.695391 -0.021803
      ESP Fit Center   85 is at  -0.069902 -2.655040 -0.021803
      ESP Fit Center   86 is at   0.324044 -2.535538 -0.021803
      ESP Fit Center   87 is at   0.687106 -2.341477 -0.021803
      ESP Fit Center   88 is at  -0.479591  0.208244 -1.961950
      ESP Fit Center   89 is at  -0.881409  0.100577 -1.961950
      ESP Fit Center   90 is at  -1.794440  0.152256  2.077964
      ESP Fit Center   91 is at  -1.384751  0.152256  2.037613
      ESP Fit Center   92 is at  -1.589596  0.507058  2.037613
      ESP Fit Center   93 is at  -1.999285  0.507058  2.037613
      ESP Fit Center   94 is at  -2.204130  0.152256  2.037613
      ESP Fit Center   95 is at  -1.999285 -0.202545  2.037613
      ESP Fit Center   96 is at  -1.589596 -0.202545  2.037613
      ESP Fit Center   97 is at  -0.990805  0.152256  1.918111
      ESP Fit Center   98 is at  -1.098472  0.554074  1.918111
      ESP Fit Center   99 is at  -1.392623  0.848225  1.918111
      ESP Fit Center  100 is at  -1.794440  0.955892  1.918111
      ESP Fit Center  101 is at  -2.196258  0.848225  1.918111
      ESP Fit Center  102 is at  -2.490409  0.554074  1.918111
      ESP Fit Center  103 is at  -2.598076  0.152256  1.918111
      ESP Fit Center  104 is at  -2.490409 -0.249561  1.918111
      ESP Fit Center  105 is at  -2.196258 -0.543712  1.918111
      ESP Fit Center  106 is at  -1.794440 -0.651379  1.918111
      ESP Fit Center  107 is at  -0.932241  0.938255  1.724050
      ESP Fit Center  108 is at  -2.786387  0.766443  1.724050
      ESP Fit Center  109 is at  -0.706527  0.573716 -1.768122
      ESP Fit Center  110 is at  -0.932241  0.938255 -1.768122
      ESP Fit Center  111 is at  -2.786387  0.766443 -1.768122
      ESP Fit Center  112 is at  -0.990805  0.152256 -1.962183
      ESP Fit Center  113 is at  -1.098472  0.554074 -1.962183
      ESP Fit Center  114 is at  -1.392623  0.848225 -1.962183
      ESP Fit Center  115 is at  -1.794440  0.955892 -1.962183
      ESP Fit Center  116 is at  -2.196258  0.848225 -1.962183
      ESP Fit Center  117 is at  -2.490409  0.554074 -1.962183
      ESP Fit Center  118 is at  -2.598076  0.152256 -1.962183
      ESP Fit Center  119 is at  -2.490409 -0.249561 -1.962183
      ESP Fit Center  120 is at  -2.196258 -0.543712 -1.962183
      ESP Fit Center  121 is at  -1.794440 -0.651379 -1.962183
      ESP Fit Center  122 is at  -1.384751  0.152256 -2.081685
      ESP Fit Center  123 is at  -1.589596  0.507058 -2.081685
      ESP Fit Center  124 is at  -1.999285  0.507058 -2.081685
      ESP Fit Center  125 is at  -2.204130  0.152256 -2.081685
      ESP Fit Center  126 is at  -1.999285 -0.202545 -2.081685
      ESP Fit Center  127 is at  -1.589596 -0.202545 -2.081685
      ESP Fit Center  128 is at  -1.794440  0.152256 -2.122036
      ESP Fit Center  129 is at  -1.912624  1.369666  1.950607
      ESP Fit Center  130 is at  -1.505117  1.369666  1.907777
      ESP Fit Center  131 is at  -1.708871  1.722577  1.907777
      ESP Fit Center  132 is at  -2.116378  1.722577  1.907777
      ESP Fit Center  133 is at  -2.320131  1.369666  1.907777
      ESP Fit Center  134 is at  -2.116378  1.016754  1.907777
      ESP Fit Center  135 is at  -1.708871  1.016754  1.907777
      ESP Fit Center  136 is at  -1.115420  1.369666  1.781157
      ESP Fit Center  137 is at  -1.222225  1.768268  1.781157
      ESP Fit Center  138 is at  -1.514022  2.060065  1.781157
      ESP Fit Center  139 is at  -1.912624  2.166870  1.781157
      ESP Fit Center  140 is at  -2.311226  2.060065  1.781157
      ESP Fit Center  141 is at  -2.603023  1.768268  1.781157
      ESP Fit Center  142 is at  -2.709828  1.369666  1.781157
      ESP Fit Center  143 is at  -2.603023  0.971064  1.781157
      ESP Fit Center  144 is at  -0.838361  1.785838  1.576281
      ESP Fit Center  145 is at  -1.061242  2.145803  1.576281
      ESP Fit Center  146 is at  -1.399107  2.400947  1.576281
      ESP Fit Center  147 is at  -1.806326  2.516810  1.576281
      ESP Fit Center  148 is at  -2.227900  2.477746  1.576281
      ESP Fit Center  149 is at  -2.606895  2.289029  1.576281
      ESP Fit Center  150 is at  -2.892125  1.976147  1.576281
      ESP Fit Center  151 is at  -3.045067  1.581356  1.576281
      ESP Fit Center  152 is at  -0.687285  2.157144  1.302103
      ESP Fit Center  153 is at  -0.958778  2.470463  1.302103
      ESP Fit Center  154 is at  -1.307546  2.694603  1.302103
      ESP Fit Center  155 is at  -1.705334  2.811404  1.302103
      ESP Fit Center  156 is at  -2.119915  2.811404  1.302103
      ESP Fit Center  157 is at  -2.517703  2.694603  1.302103
      ESP Fit Center  158 is at  -2.866471  2.470463  1.302103
      ESP Fit Center  159 is at  -3.137964  2.157144  1.302103
      ESP Fit Center  160 is at  -3.310187  1.780027  1.302103
      ESP Fit Center  161 is at  -0.675266  2.531623  0.970607
      ESP Fit Center  162 is at  -1.003107  2.802836  0.970607
      ESP Fit Center  163 is at  -1.388096  2.983998  0.970607
      ESP Fit Center  164 is at  -1.806043  3.063726  0.970607
      ESP Fit Center  165 is at  -2.230687  3.037010  0.970607
      ESP Fit Center  166 is at  -2.635346  2.905528  0.970607
      ESP Fit Center  167 is at  -2.994594  2.677542  0.970607
      ESP Fit Center  168 is at  -3.285858  2.367378  0.970607
      ESP Fit Center  169 is at  -3.490836  1.994524  0.970607
      ESP Fit Center  170 is at  -0.455235  2.531895  0.596281
      ESP Fit Center  171 is at  -0.750395  2.827055  0.596281
      ESP Fit Center  172 is at  -1.103834  3.049135  0.596281
      ESP Fit Center  173 is at  -1.497829  3.187000  0.596281
      ESP Fit Center  174 is at  -1.912624  3.233737  0.596281
      ESP Fit Center  175 is at  -2.327419  3.187000  0.596281
      ESP Fit Center  176 is at  -2.721414  3.049135  0.596281
      ESP Fit Center  177 is at  -3.074853  2.827055  0.596281
      ESP Fit Center  178 is at  -3.370013  2.531895  0.596281
      ESP Fit Center  179 is at  -3.592094  2.178456  0.596281
      ESP Fit Center  180 is at  -0.360829  2.549309  0.195483
      ESP Fit Center  181 is at  -0.650698  2.855320  0.195483
      ESP Fit Center  182 is at  -0.999573  3.091863  0.195483
      ESP Fit Center  183 is at  -1.391141  3.247878  0.195483
      ESP Fit Center  184 is at  -1.807093  3.316070  0.195483
      ESP Fit Center  185 is at  -2.227980  3.293250  0.195483
      ESP Fit Center  186 is at  -2.634121  3.180486  0.195483
      ESP Fit Center  187 is at  -3.006525  2.983049  0.195483
      ESP Fit Center  188 is at  -3.327780  2.710173  0.195483
      ESP Fit Center  189 is at  -3.582864  2.374616  0.195483
      ESP Fit Center  190 is at  -3.759849  1.992068  0.195483
      ESP Fit Center  191 is at  -0.360829  2.549309 -0.214268
      ESP Fit Center  192 is at  -0.650698  2.855320 -0.214268
      ESP Fit Center  193 is at  -0.999573  3.091863 -0.214268
      ESP Fit Center  194 is at  -1.391141  3.247878 -0.214268
      ESP Fit Center  195 is at  -1.807093  3.316070 -0.214268
      ESP Fit Center  196 is at  -2.227980  3.293250 -0.214268
      ESP Fit Center  197 is at  -2.634121  3.180486 -0.214268
      ESP Fit Center  198 is at  -3.006525  2.983049 -0.214268
      ESP Fit Center  199 is at  -3.327780  2.710173 -0.214268
      ESP Fit Center  200 is at  -3.582864  2.374616 -0.214268
      ESP Fit Center  201 is at  -3.759849  1.992068 -0.214268
      ESP Fit Center  202 is at  -0.455235  2.531895 -0.615066
      ESP Fit Center  203 is at  -0.750395  2.827055 -0.615066
      ESP Fit Center  204 is at  -1.103834  3.049135 -0.615066
      ESP Fit Center  205 is at  -1.497829  3.187000 -0.615066
      ESP Fit Center  206 is at  -1.912624  3.233737 -0.615066
      ESP Fit Center  207 is at  -2.327419  3.187000 -0.615066
      ESP Fit Center  208 is at  -2.721414  3.049135 -0.615066
      ESP Fit Center  209 is at  -3.074853  2.827055 -0.615066
      ESP Fit Center  210 is at  -3.370013  2.531895 -0.615066
      ESP Fit Center  211 is at  -3.592094  2.178456 -0.615066
      ESP Fit Center  212 is at  -0.675266  2.531623 -0.989393
      ESP Fit Center  213 is at  -1.003107  2.802836 -0.989393
      ESP Fit Center  214 is at  -1.388096  2.983998 -0.989393
      ESP Fit Center  215 is at  -1.806043  3.063726 -0.989393
      ESP Fit Center  216 is at  -2.230687  3.037010 -0.989393
      ESP Fit Center  217 is at  -2.635346  2.905528 -0.989393
      ESP Fit Center  218 is at  -2.994594  2.677542 -0.989393
      ESP Fit Center  219 is at  -3.285858  2.367378 -0.989393
      ESP Fit Center  220 is at  -3.490836  1.994524 -0.989393
      ESP Fit Center  221 is at  -0.687285  2.157144 -1.320889
      ESP Fit Center  222 is at  -0.958778  2.470463 -1.320889
      ESP Fit Center  223 is at  -1.307546  2.694603 -1.320889
      ESP Fit Center  224 is at  -1.705334  2.811404 -1.320889
      ESP Fit Center  225 is at  -2.119915  2.811404 -1.320889
      ESP Fit Center  226 is at  -2.517703  2.694603 -1.320889
      ESP Fit Center  227 is at  -2.866471  2.470463 -1.320889
      ESP Fit Center  228 is at  -3.137964  2.157144 -1.320889
      ESP Fit Center  229 is at  -3.310187  1.780027 -1.320889
      ESP Fit Center  230 is at  -0.838361  1.785838 -1.595066
      ESP Fit Center  231 is at  -1.061242  2.145803 -1.595066
      ESP Fit Center  232 is at  -1.399107  2.400947 -1.595066
      ESP Fit Center  233 is at  -1.806326  2.516810 -1.595066
      ESP Fit Center  234 is at  -2.227900  2.477746 -1.595066
      ESP Fit Center  235 is at  -2.606895  2.289029 -1.595066
      ESP Fit Center  236 is at  -2.892125  1.976147 -1.595066
      ESP Fit Center  237 is at  -3.045067  1.581356 -1.595066
      ESP Fit Center  238 is at  -1.115420  1.369666 -1.799942
      ESP Fit Center  239 is at  -1.222225  1.768268 -1.799942
      ESP Fit Center  240 is at  -1.514022  2.060065 -1.799942
      ESP Fit Center  241 is at  -1.912624  2.166870 -1.799942
      ESP Fit Center  242 is at  -2.311226  2.060065 -1.799942
      ESP Fit Center  243 is at  -2.603023  1.768268 -1.799942
      ESP Fit Center  244 is at  -2.709828  1.369666 -1.799942
      ESP Fit Center  245 is at  -2.603023  0.971064 -1.799942
      ESP Fit Center  246 is at  -1.505117  1.369666 -1.926562
      ESP Fit Center  247 is at  -1.708871  1.722577 -1.926562
      ESP Fit Center  248 is at  -2.116378  1.722577 -1.926562
      ESP Fit Center  249 is at  -2.320131  1.369666 -1.926562
      ESP Fit Center  250 is at  -2.116378  1.016754 -1.926562
      ESP Fit Center  251 is at  -1.912624  1.369666 -1.969393
      ESP Fit Center  252 is at  -2.818945 -0.750628  1.953660
      ESP Fit Center  253 is at  -2.411438 -0.750628  1.910829
      ESP Fit Center  254 is at  -2.615192 -0.397717  1.910829
      ESP Fit Center  255 is at  -3.022699 -0.397717  1.910829
      ESP Fit Center  256 is at  -3.226452 -0.750628  1.910829
      ESP Fit Center  257 is at  -3.022699 -1.103540  1.910829
      ESP Fit Center  258 is at  -2.615192 -1.103540  1.910829
      ESP Fit Center  259 is at  -3.217547 -1.441027  1.784209
      ESP Fit Center  260 is at  -2.818945 -1.547832  1.784209
      ESP Fit Center  261 is at  -2.420343 -1.441027  1.784209
      ESP Fit Center  262 is at  -2.128546 -1.149230  1.784209
      ESP Fit Center  263 is at  -3.513216 -1.669991  1.579333
      ESP Fit Center  264 is at  -3.134221 -1.858708  1.579333
      ESP Fit Center  265 is at  -2.712647 -1.897773  1.579333
      ESP Fit Center  266 is at  -2.305428 -1.781909  1.579333
      ESP Fit Center  267 is at  -1.967563 -1.526765  1.579333
      ESP Fit Center  268 is at  -3.772792 -1.851426  1.305156
      ESP Fit Center  269 is at  -3.424024 -2.075565  1.305156
      ESP Fit Center  270 is at  -3.026236 -2.192366  1.305156
      ESP Fit Center  271 is at  -2.611655 -2.192366  1.305156
      ESP Fit Center  272 is at  -2.213867 -2.075565  1.305156
      ESP Fit Center  273 is at  -3.900915 -2.058505  0.973660
      ESP Fit Center  274 is at  -3.541667 -2.286491  0.973660
      ESP Fit Center  275 is at  -3.137008 -2.417972  0.973660
      ESP Fit Center  276 is at  -2.712364 -2.444689  0.973660
      ESP Fit Center  277 is at  -2.294417 -2.364961  0.973660
      ESP Fit Center  278 is at  -1.909428 -2.183799  0.973660
      ESP Fit Center  279 is at  -3.627735 -2.430098  0.599333
      ESP Fit Center  280 is at  -3.233740 -2.567963  0.599333
      ESP Fit Center  281 is at  -2.818945 -2.614699  0.599333
      ESP Fit Center  282 is at  -2.404150 -2.567963  0.599333
      ESP Fit Center  283 is at  -2.010155 -2.430098  0.599333
      ESP Fit Center  284 is at  -3.540442 -2.561448  0.198536
      ESP Fit Center  285 is at  -3.134301 -2.674213  0.198536
      ESP Fit Center  286 is at  -2.713414 -2.697032  0.198536
      ESP Fit Center  287 is at  -2.297462 -2.628841  0.198536
      ESP Fit Center  288 is at  -1.905894 -2.472826  0.198536
      ESP Fit Center  289 is at  -3.540442 -2.561448 -0.211216
      ESP Fit Center  290 is at  -3.134301 -2.674213 -0.211216
      ESP Fit Center  291 is at  -2.713414 -2.697032 -0.211216
      ESP Fit Center  292 is at  -2.297462 -2.628841 -0.211216
      ESP Fit Center  293 is at  -1.905894 -2.472826 -0.211216
      ESP Fit Center  294 is at  -3.627735 -2.430098 -0.612013
      ESP Fit Center  295 is at  -3.233740 -2.567963 -0.612013
      ESP Fit Center  296 is at  -2.818945 -2.614699 -0.612013
      ESP Fit Center  297 is at  -2.404150 -2.567963 -0.612013
      ESP Fit Center  298 is at  -2.010155 -2.430098 -0.612013
      ESP Fit Center  299 is at  -3.900915 -2.058505 -0.986340
      ESP Fit Center  300 is at  -3.541667 -2.286491 -0.986340
      ESP Fit Center  301 is at  -3.137008 -2.417972 -0.986340
      ESP Fit Center  302 is at  -2.712364 -2.444689 -0.986340
      ESP Fit Center  303 is at  -2.294417 -2.364961 -0.986340
      ESP Fit Center  304 is at  -1.909428 -2.183799 -0.986340
      ESP Fit Center  305 is at  -3.772792 -1.851426 -1.317836
      ESP Fit Center  306 is at  -3.424024 -2.075565 -1.317836
      ESP Fit Center  307 is at  -3.026236 -2.192366 -1.317836
      ESP Fit Center  308 is at  -2.611655 -2.192366 -1.317836
      ESP Fit Center  309 is at  -2.213867 -2.075565 -1.317836
      ESP Fit Center  310 is at  -3.513216 -1.669991 -1.592013
      ESP Fit Center  311 is at  -3.134221 -1.858708 -1.592013
      ESP Fit Center  312 is at  -2.712647 -1.897773 -1.592013
      ESP Fit Center  313 is at  -2.305428 -1.781909 -1.592013
      ESP Fit Center  314 is at  -1.967563 -1.526765 -1.592013
      ESP Fit Center  315 is at  -3.509344 -1.149230 -1.796889
      ESP Fit Center  316 is at  -3.217547 -1.441027 -1.796889
      ESP Fit Center  317 is at  -2.818945 -1.547832 -1.796889
      ESP Fit Center  318 is at  -2.420343 -1.441027 -1.796889
      ESP Fit Center  319 is at  -2.128546 -1.149230 -1.796889
      ESP Fit Center  320 is at  -2.411438 -0.750628 -1.923509
      ESP Fit Center  321 is at  -2.615192 -0.397717 -1.923509
      ESP Fit Center  322 is at  -3.022699 -0.397717 -1.923509
      ESP Fit Center  323 is at  -3.226452 -0.750628 -1.923509
      ESP Fit Center  324 is at  -3.022699 -1.103540 -1.923509
      ESP Fit Center  325 is at  -2.615192 -1.103540 -1.923509
      ESP Fit Center  326 is at  -2.818945 -0.750628 -1.966340
      ESP Fit Center  327 is at  -4.536586 -0.885848  1.967053
      ESP Fit Center  328 is at  -4.134769 -0.993515  1.967053
      ESP Fit Center  329 is at  -3.732951 -0.885848  1.967053
      ESP Fit Center  330 is at  -5.126715 -0.804067  1.772992
      ESP Fit Center  331 is at  -4.837861 -1.120924  1.772992
      ESP Fit Center  332 is at  -4.454051 -1.312039  1.772992
      ESP Fit Center  333 is at  -4.027120 -1.351600  1.772992
      ESP Fit Center  334 is at  -3.614727 -1.234264  1.772992
      ESP Fit Center  335 is at  -4.346096 -1.659689  1.511830
      ESP Fit Center  336 is at  -3.923442 -1.659689  1.511830
      ESP Fit Center  337 is at  -5.880855 -0.189880  1.193603
      ESP Fit Center  338 is at  -3.924301 -1.923235  1.193603
      ESP Fit Center  339 is at  -5.973355  0.429612  0.830541
      ESP Fit Center  340 is at  -6.063543  0.019887  0.830541
      ESP Fit Center  341 is at  -5.697544  1.151719  0.436595
      ESP Fit Center  342 is at  -5.935616  0.809672  0.436595
      ESP Fit Center  343 is at  -6.099961  0.426703  0.436595
      ESP Fit Center  344 is at  -6.183850  0.018492  0.436595
      ESP Fit Center  345 is at  -4.134769  1.910120  0.026906
      ESP Fit Center  346 is at  -4.544458  1.869769  0.026906
      ESP Fit Center  347 is at  -4.938404  1.750267  0.026906
      ESP Fit Center  348 is at  -5.301466  1.556207  0.026906
      ESP Fit Center  349 is at  -5.619693  1.295045  0.026906
      ESP Fit Center  350 is at  -5.880855  0.976818  0.026906
      ESP Fit Center  351 is at  -6.074916  0.613756  0.026906
      ESP Fit Center  352 is at  -6.194418  0.219810  0.026906
      ESP Fit Center  353 is at  -5.935616  0.809672 -0.382784
      ESP Fit Center  354 is at  -6.099961  0.426703 -0.382784
      ESP Fit Center  355 is at  -6.183850  0.018492 -0.382784
      ESP Fit Center  356 is at  -5.973355  0.429612 -0.776730
      ESP Fit Center  357 is at  -6.063543  0.019887 -0.776730
      ESP Fit Center  358 is at  -5.880855 -0.189880 -1.139792
      ESP Fit Center  359 is at  -3.924301 -1.923235 -1.139792
      ESP Fit Center  360 is at  -5.559543 -0.608231 -1.458019
      ESP Fit Center  361 is at  -4.346096 -1.659689 -1.458019
      ESP Fit Center  362 is at  -3.923442 -1.659689 -1.458019
      ESP Fit Center  363 is at  -5.126715 -0.804067 -1.719181
      ESP Fit Center  364 is at  -4.837861 -1.120924 -1.719181
      ESP Fit Center  365 is at  -4.454051 -1.312039 -1.719181
      ESP Fit Center  366 is at  -4.027120 -1.351600 -1.719181
      ESP Fit Center  367 is at  -4.536586 -0.885848 -1.913241
      ESP Fit Center  368 is at  -4.134769 -0.993515 -1.913241
      ESP Fit Center  369 is at  -3.732951 -0.885848 -1.913241
      ESP Fit Center  370 is at  -3.438800 -0.591697 -1.913241
      ESP Fit Center  371 is at   5.859836  0.429606  1.645332
      ESP Fit Center  372 is at   5.642428  0.806167  1.645332
      ESP Fit Center  373 is at   6.265020  0.429606  1.477500
      ESP Fit Center  374 is at   6.152482  0.849606  1.477500
      ESP Fit Center  375 is at   5.845020  1.157067  1.477500
      ESP Fit Center  376 is at   5.425020  1.269606  1.477500
      ESP Fit Center  377 is at   6.152482  0.009606  1.477500
      ESP Fit Center  378 is at   6.612960  0.429606  1.210516
      ESP Fit Center  379 is at   6.532741  0.858739  1.210516
      ESP Fit Center  380 is at   6.302918  1.229915  1.210516
      ESP Fit Center  381 is at   5.954530  1.493005  1.210516
      ESP Fit Center  382 is at   5.534629  1.612477  1.210516
      ESP Fit Center  383 is at   5.099925  1.572196  1.210516
      ESP Fit Center  384 is at   6.302918 -0.370704  1.210516
      ESP Fit Center  385 is at   6.532741  0.000472  1.210516
      ESP Fit Center  386 is at   6.879943  0.429606  0.862577
      ESP Fit Center  387 is at   6.815305  0.858452  0.862577
      ESP Fit Center  388 is at   6.627134  1.249193  0.862577
      ESP Fit Center  389 is at   6.332150  1.567110  0.862577
      ESP Fit Center  390 is at   5.956563  1.783955  0.862577
      ESP Fit Center  391 is at   5.533747  1.880460  0.862577
      ESP Fit Center  392 is at   5.101269  1.848050  0.862577
      ESP Fit Center  393 is at   6.627134 -0.389982  0.862577
      ESP Fit Center  394 is at   6.815305  0.000760  0.862577
      ESP Fit Center  395 is at   7.047776  0.429606  0.457393
      ESP Fit Center  396 is at   6.992482  0.849606  0.457393
      ESP Fit Center  397 is at   6.830368  1.240983  0.457393
      ESP Fit Center  398 is at   6.572482  1.577067  0.457393
      ESP Fit Center  399 is at   6.236398  1.834953  0.457393
      ESP Fit Center  400 is at   5.845020  1.997067  0.457393
      ESP Fit Center  401 is at   5.425020  2.052361  0.457393
      ESP Fit Center  402 is at   5.005020  1.997067  0.457393
      ESP Fit Center  403 is at   6.830368 -0.381772  0.457393
      ESP Fit Center  404 is at   6.992482  0.009606  0.457393
      ESP Fit Center  405 is at   7.105020  0.429606  0.022577
      ESP Fit Center  406 is at   7.052240  0.847405  0.022577
      ESP Fit Center  407 is at   6.897215  1.238952  0.022577
      ESP Fit Center  408 is at   6.649687  1.579645  0.022577
      ESP Fit Center  409 is at   6.325209  1.848076  0.022577
      ESP Fit Center  410 is at   5.944169  2.027380  0.022577
      ESP Fit Center  411 is at   5.530508  2.106290  0.022577
      ESP Fit Center  412 is at   5.110220  2.079848  0.022577
      ESP Fit Center  413 is at   6.649687 -0.720434  0.022577
      ESP Fit Center  414 is at   6.897215 -0.379741  0.022577
      ESP Fit Center  415 is at   7.052240  0.011807  0.022577
      ESP Fit Center  416 is at   7.047776  0.429606 -0.412239
      ESP Fit Center  417 is at   6.992482  0.849606 -0.412239
      ESP Fit Center  418 is at   6.830368  1.240983 -0.412239
      ESP Fit Center  419 is at   6.572482  1.577067 -0.412239
      ESP Fit Center  420 is at   6.236398  1.834953 -0.412239
      ESP Fit Center  421 is at   5.845020  1.997067 -0.412239
      ESP Fit Center  422 is at   5.425020  2.052361 -0.412239
      ESP Fit Center  423 is at   5.005020  1.997067 -0.412239
      ESP Fit Center  424 is at   6.830368 -0.381772 -0.412239
      ESP Fit Center  425 is at   6.992482  0.009606 -0.412239
      ESP Fit Center  426 is at   6.879943  0.429606 -0.817423
      ESP Fit Center  427 is at   6.815305  0.858452 -0.817423
      ESP Fit Center  428 is at   6.627134  1.249193 -0.817423
      ESP Fit Center  429 is at   6.332150  1.567110 -0.817423
      ESP Fit Center  430 is at   5.956563  1.783955 -0.817423
      ESP Fit Center  431 is at   5.533747  1.880460 -0.817423
      ESP Fit Center  432 is at   5.101269  1.848050 -0.817423
      ESP Fit Center  433 is at   6.627134 -0.389982 -0.817423
      ESP Fit Center  434 is at   6.815305  0.000760 -0.817423
      ESP Fit Center  435 is at   6.612960  0.429606 -1.165362
      ESP Fit Center  436 is at   6.532741  0.858739 -1.165362
      ESP Fit Center  437 is at   6.302918  1.229915 -1.165362
      ESP Fit Center  438 is at   5.954530  1.493005 -1.165362
      ESP Fit Center  439 is at   5.534629  1.612477 -1.165362
      ESP Fit Center  440 is at   5.099925  1.572196 -1.165362
      ESP Fit Center  441 is at   6.532741  0.000472 -1.165362
      ESP Fit Center  442 is at   6.265020  0.429606 -1.432346
      ESP Fit Center  443 is at   6.152482  0.849606 -1.432346
      ESP Fit Center  444 is at   5.845020  1.157067 -1.432346
      ESP Fit Center  445 is at   5.425020  1.269606 -1.432346
      ESP Fit Center  446 is at   6.152482  0.009606 -1.432346
      ESP Fit Center  447 is at   5.859836  0.429606 -1.600178
      ESP Fit Center  448 is at   5.642428  0.806167 -1.600178
      ESP Fit Center  449 is at   4.648360 -0.912749  2.564505
      ESP Fit Center  450 is at   5.083176 -0.912749  2.507261
      ESP Fit Center  451 is at   4.865768 -0.536187  2.507261
      ESP Fit Center  452 is at   4.430952 -0.536187  2.507261
      ESP Fit Center  453 is at   4.213544 -0.912749  2.507261
      ESP Fit Center  454 is at   4.430952 -1.289310  2.507261
      ESP Fit Center  455 is at   4.865768 -1.289310  2.507261
      ESP Fit Center  456 is at   5.488360 -0.912749  2.339428
      ESP Fit Center  457 is at   5.375821 -0.492749  2.339428
      ESP Fit Center  458 is at   5.068360 -0.185287  2.339428
      ESP Fit Center  459 is at   4.648360 -0.072749  2.339428
      ESP Fit Center  460 is at   4.228360 -0.185287  2.339428
      ESP Fit Center  461 is at   3.920899 -0.492749  2.339428
      ESP Fit Center  462 is at   3.808360 -0.912749  2.339428
      ESP Fit Center  463 is at   3.920899 -1.332749  2.339428
      ESP Fit Center  464 is at   4.228360 -1.640210  2.339428
      ESP Fit Center  465 is at   4.648360 -1.752749  2.339428
      ESP Fit Center  466 is at   5.068360 -1.640210  2.339428
      ESP Fit Center  467 is at   5.375821 -1.332749  2.339428
      ESP Fit Center  468 is at   5.836299 -0.912749  2.072445
      ESP Fit Center  469 is at   5.756080 -0.483615  2.072445
      ESP Fit Center  470 is at   5.526258 -0.112439  2.072445
      ESP Fit Center  471 is at   5.177870  0.150651  2.072445
      ESP Fit Center  472 is at   4.757969  0.270123  2.072445
      ESP Fit Center  473 is at   4.323265  0.229842  2.072445
      ESP Fit Center  474 is at   3.932466  0.035248  2.072445
      ESP Fit Center  475 is at   3.638353 -0.287379  2.072445
      ESP Fit Center  476 is at   3.480647 -0.694465  2.072445
      ESP Fit Center  477 is at   3.480647 -1.131032  2.072445
      ESP Fit Center  478 is at   3.638353 -1.538118  2.072445
      ESP Fit Center  479 is at   3.932466 -1.860745  2.072445
      ESP Fit Center  480 is at   4.323265 -2.055339  2.072445
      ESP Fit Center  481 is at   4.757969 -2.095620  2.072445
      ESP Fit Center  482 is at   5.177870 -1.976148  2.072445
      ESP Fit Center  483 is at   5.526258 -1.713058  2.072445
      ESP Fit Center  484 is at   5.756080 -1.341882  2.072445
      ESP Fit Center  485 is at   6.103283 -0.912749  1.724505
      ESP Fit Center  486 is at   6.038644 -0.483903  1.724505
      ESP Fit Center  487 is at   5.850473 -0.093161  1.724505
      ESP Fit Center  488 is at   3.581826 -1.902347  1.724505
      ESP Fit Center  489 is at   3.920899 -2.172749  1.724505
      ESP Fit Center  490 is at   4.324609 -2.331193  1.724505
      ESP Fit Center  491 is at   4.757086 -2.363603  1.724505
      ESP Fit Center  492 is at   5.179903 -2.267098  1.724505
      ESP Fit Center  493 is at   5.555489 -2.050253  1.724505
      ESP Fit Center  494 is at   5.850473 -1.732336  1.724505
[...]
 5804 Fit       0.004623
 5805 Fit       0.005471
 5806 Fit       0.006512
 5807 Fit       0.007328
 5808 Fit       0.007502
 5809 Fit       0.007072
 5810 Fit       0.006418
 5811 Fit       0.005813
 5812 Fit       0.005345
 5813 Fit       0.005019
 5814 Fit       0.004815
 5815 Fit       0.004651
 5816 Fit       0.008166
 5817 Fit       0.007116
 5818 Fit       0.006264
 5819 Fit       0.005634
 5820 Fit       0.005190
 5821 Fit       0.004907
 5822 Fit       0.004788
 5823 Fit       0.004819
 5824 Fit       0.007076
 5825 Fit       0.006112
 5826 Fit       0.005447
 5827 Fit       0.004985
 5828 Fit       0.004690
 5829 Fit       0.004581
 5830 Fit       0.006746
 5831 Fit       0.005784
 5832 Fit       0.005126
 5833 Fit       0.004659
 5834 Fit       0.004342
 5835 Fit       0.004191
 5836 Fit       0.007024
 5837 Fit       0.005811
 5838 Fit       0.005011
 5839 Fit       0.004443
 5840 Fit       0.004025
 5841 Fit       0.003735
 5842 Fit       0.003618
 5843 Fit       0.005774
 5844 Fit       0.004865
 5845 Fit       0.004214
 5846 Fit       0.003715
 5847 Fit       0.003321
 5848 Fit       0.003018
 5849 Fit       0.004962
 5850 Fit       0.004175
 5851 Fit       0.003569
 5852 Fit       0.003076
 5853 Fit       0.002652
 5854 Fit       0.002262
 5855 Fit       0.003940
 5856 Fit       0.003260
 5857 Fit       0.002701
 5858 Fit       0.002205
 5859 Fit       0.001710
 5860 Fit       0.001433
 5861 Fit       0.001932
 5862 Fit       0.000651
 5863 Fit      -0.000157
 5864 Fit       0.000799
 5865 Fit       0.002423
 5866 Fit       0.002731
 5867 Fit       0.002354
 5868 Fit       0.001296
 5869 Fit      -0.000009
 5870 Fit      -0.001319
 5871 Fit      -0.002141
 5872 Fit      -0.001788
 5873 Fit      -0.000025
 5874 Fit       0.002223
 5875 Fit       0.003738
 5876 Fit       0.004167
 5877 Fit       0.003837
 5878 Fit       0.003174
 5879 Fit       0.002768
 5880 Fit       0.001915
 5881 Fit       0.000761
 5882 Fit      -0.000613
 5883 Fit      -0.002093
 5884 Fit      -0.003533
 5885 Fit      -0.004628
 5886 Fit      -0.004853
 5887 Fit      -0.003672
 5888 Fit      -0.001114
 5889 Fit       0.001891
 5890 Fit       0.004247
 5891 Fit       0.005544
 5892 Fit       0.005867
 5893 Fit       0.004846
 5894 Fit       0.004106
 5895 Fit       0.003429
 5896 Fit       0.000071
 5897 Fit      -0.001484
 5898 Fit      -0.003148
 5899 Fit      -0.004918
 5900 Fit      -0.006688
 5901 Fit      -0.008149
 5902 Fit      -0.008724
 5903 Fit      -0.007683
 5904 Fit      -0.004666
 5905 Fit      -0.000999
 5906 Fit      -0.002769
 5907 Fit      -0.004666
 5908 Fit      -0.006784
 5909 Fit      -0.009126
 5910 Fit      -0.011531
 5911 Fit      -0.013550
 5912 Fit      -0.002335
 5913 Fit      -0.004231
 5914 Fit      -0.006317
 5915 Fit      -0.008748
 5916 Fit      -0.011616
 5917 Fit      -0.014922
 5918 Fit      -0.004573
 5919 Fit      -0.006732
 5920 Fit      -0.009306
 5921 Fit      -0.012489
 5922 Fit      -0.016468
 5923 Fit      -0.004985
 5924 Fit      -0.007078
 5925 Fit      -0.009620
 5926 Fit      -0.012847
 5927 Fit      -0.017034
 5928 Fit      -0.022550
 5929 Fit      -0.007828
 5930 Fit      -0.010400
 5931 Fit      -0.013765
 5932 Fit      -0.018256
 5933 Fit      -0.009341
 5934 Fit      -0.012340
 5935 Fit      -0.016430
 5936 Fit      -0.022120
 5937 Fit      -0.009343
 5938 Fit      -0.012342
 5939 Fit      -0.016433
 5940 Fit      -0.022124
 5941 Fit      -0.007830
 5942 Fit      -0.010400
 5943 Fit      -0.013763
 5944 Fit      -0.018251
 5945 Fit      -0.004988
 5946 Fit      -0.007077
 5947 Fit      -0.009616
 5948 Fit      -0.012839
 5949 Fit      -0.017019
 5950 Fit      -0.022523
 5951 Fit      -0.004571
 5952 Fit      -0.006726
 5953 Fit      -0.009295
 5954 Fit      -0.012472
 5955 Fit      -0.016439
 5956 Fit      -0.002332
 5957 Fit      -0.004225
 5958 Fit      -0.006307
 5959 Fit      -0.008731
 5960 Fit      -0.011589
 5961 Fit      -0.014880
 5962 Fit      -0.018405
 5963 Fit      -0.000993
 5964 Fit      -0.002760
 5965 Fit      -0.004652
 5966 Fit      -0.006764
 5967 Fit      -0.009096
 5968 Fit      -0.011486
 5969 Fit      -0.013487
 5970 Fit       0.000079
 5971 Fit      -0.001473
 5972 Fit      -0.003133
 5973 Fit      -0.004896
 5974 Fit      -0.006657
 5975 Fit      -0.008106
 5976 Fit      -0.008668
 5977 Fit      -0.007619
 5978 Fit      -0.004606
 5979 Fit       0.002776
 5980 Fit       0.001924
 5981 Fit       0.000771
 5982 Fit      -0.000600
 5983 Fit      -0.002076
 5984 Fit      -0.003509
 5985 Fit      -0.004596
 5986 Fit      -0.004813
 5987 Fit      -0.003630
 5988 Fit      -0.001079
 5989 Fit       0.001911
 5990 Fit       0.004252
 5991 Fit       0.005539
 5992 Fit       0.005860
 5993 Fit       0.004843
 5994 Fit       0.004107
 5995 Fit       0.003434
 5996 Fit       0.002362
 5997 Fit       0.001307
 5998 Fit       0.000005
 5999 Fit      -0.001299
 6000 Fit      -0.002115
 6001 Fit      -0.001760
 6002 Fit      -0.000000
 6003 Fit       0.002237
 6004 Fit       0.003743
 6005 Fit       0.004169
 6006 Fit       0.003840
 6007 Fit       0.003180
 6008 Fit       0.001943
 6009 Fit       0.000665
 6010 Fit      -0.000138
 6011 Fit       0.000817
 6012 Fit       0.002433
 6013 Fit       0.002739
 6014 Fit       0.001446
 6015 Fit      -0.001002
 6016 Fit       0.001501
 6017 Fit       0.003186
 6018 Fit       0.004316
 6019 Fit       0.005033
 6020 Fit      -0.002112
 6021 Fit       0.000653
 6022 Fit       0.002564
 6023 Fit       0.003899
 6024 Fit       0.004820
 6025 Fit       0.005423
 6026 Fit       0.005762
 6027 Fit      -0.001524
 6028 Fit       0.001041
 6029 Fit       0.002870
 6030 Fit       0.004181
 6031 Fit       0.005115
 6032 Fit       0.005766
 6033 Fit       0.006208
 6034 Fit      -0.001430
 6035 Fit       0.001037
 6036 Fit       0.002886
 6037 Fit       0.004259
 6038 Fit       0.005268
 6039 Fit       0.006003
 6040 Fit       0.006546
 6041 Fit       0.006997
 6042 Fit      -0.000559
 6043 Fit       0.001411
 6044 Fit       0.003067
 6045 Fit       0.004387
 6046 Fit       0.005408
 6047 Fit       0.006182
 6048 Fit       0.006774
 6049 Fit       0.007265
 6050 Fit       0.001355
 6051 Fit       0.002605
 6052 Fit       0.003888
 6053 Fit       0.005016
 6054 Fit       0.005933
 6055 Fit       0.006648
 6056 Fit       0.007209
 6057 Fit       0.007692
 6058 Fit       0.003579
 6059 Fit       0.003360
 6060 Fit       0.003853
 6061 Fit       0.004689
 6062 Fit       0.005575
 6063 Fit       0.006361
 6064 Fit       0.006996
 6065 Fit       0.007498
 6066 Fit       0.007910
 6067 Fit       0.008263
 6068 Fit       0.007801
 6069 Fit       0.007344
 6070 Fit       0.006754
 6071 Fit       0.006155
 6072 Fit       0.005778
 6073 Fit       0.006072
 6074 Fit       0.005834
 6075 Fit       0.005269
 6076 Fit       0.004992
 6077 Fit       0.005242
 6078 Fit       0.005834
 6079 Fit       0.006506
 6080 Fit       0.007096
 6081 Fit       0.007548
 6082 Fit       0.007852
 6083 Fit       0.007969
 6084 Fit       0.007458
 6085 Fit       0.007018
 6086 Fit       0.006487
 6087 Fit       0.006135
 6088 Fit       0.006125
 6089 Fit       0.006158
 6090 Fit       0.005996
 6091 Fit       0.006016
 6092 Fit       0.006418
 6093 Fit       0.006966
 6094 Fit       0.007403
 6095 Fit       0.007595
 6096 Fit       0.007158
 6097 Fit       0.006743
 6098 Fit       0.006491
 6099 Fit       0.006480
 6100 Fit       0.006749
 6101 Fit       0.007161
 6102 Fit       0.006846
 6103 Fit       0.006850
 6104 Fit       0.007160
 6105 Fit       0.006743
 6106 Fit       0.006491
 6107 Fit       0.006486
 6108 Fit       0.006755
 6109 Fit       0.007165
 6110 Fit       0.007459
 6111 Fit       0.007017
 6112 Fit       0.006482
 6113 Fit       0.006128
 6114 Fit       0.006121
 6115 Fit       0.006160
 6116 Fit       0.006005
 6117 Fit       0.006027
 6118 Fit       0.006427
 6119 Fit       0.006972
 6120 Fit       0.007408
 6121 Fit       0.007598
 6122 Fit       0.007803
 6123 Fit       0.007343
 6124 Fit       0.006750
 6125 Fit       0.006145
 6126 Fit       0.005635
 6127 Fit       0.005765
 6128 Fit       0.006068
 6129 Fit       0.005843
 6130 Fit       0.005285
 6131 Fit       0.005010
 6132 Fit       0.005258
 6133 Fit       0.005846
 6134 Fit       0.006514
 6135 Fit       0.007101
 6136 Fit       0.007552
 6137 Fit       0.007856
 6138 Fit       0.007972
 6139 Fit       0.003610
 6140 Fit       0.003387
 6141 Fit       0.003874
 6142 Fit       0.004704
 6143 Fit       0.005586
 6144 Fit       0.006368
 6145 Fit       0.007001
 6146 Fit       0.007501
 6147 Fit       0.007912
 6148 Fit       0.008264
 6149 Fit       0.001386
 6150 Fit       0.002626
 6151 Fit       0.003902
 6152 Fit       0.005025
 6153 Fit       0.005939
 6154 Fit       0.006652
 6155 Fit       0.007211
 6156 Fit       0.007692
 6157 Fit      -0.000531
 6158 Fit       0.001430
 6159 Fit       0.003079
 6160 Fit       0.004395
 6161 Fit       0.005413
 6162 Fit       0.006185
 6163 Fit       0.006774
 6164 Fit       0.007264
 6165 Fit      -0.001410
 6166 Fit       0.001049
 6167 Fit       0.002894
 6168 Fit       0.004263
 6169 Fit       0.005271
 6170 Fit       0.006004
 6171 Fit       0.006545
 6172 Fit       0.006994
 6173 Fit      -0.001514
 6174 Fit       0.001048
 6175 Fit       0.002874
 6176 Fit       0.004184
 6177 Fit       0.005116
 6178 Fit       0.005765
 6179 Fit       0.006205
 6180 Fit      -0.002107
 6181 Fit       0.000656
 6182 Fit       0.002566
 6183 Fit       0.003900
 6184 Fit       0.004820
 6185 Fit       0.005422
 6186 Fit       0.005759
 6187 Fit      -0.001001
 6188 Fit       0.001502
 6189 Fit       0.003187
 6190 Fit       0.004318
 6191 Fit       0.005034
 6192 Fit       0.007968
 6193 Fit       0.007272
 6194 Fit       0.006330
 6195 Fit       0.005058
 6196 Fit       0.008836
 6197 Fit       0.008369
 6198 Fit       0.007777
 6199 Fit       0.006969
 6200 Fit       0.005867
 6201 Fit       0.004396
 6202 Fit       0.002476
 6203 Fit       0.009692
 6204 Fit       0.009319
 6205 Fit       0.008946
 6206 Fit       0.008480
 6207 Fit       0.007845
 6208 Fit       0.006973
 6209 Fit       0.005791
 6210 Fit       0.004214
 6211 Fit       0.002114
 6212 Fit       0.010019
 6213 Fit       0.009713
 6214 Fit       0.009411
 6215 Fit       0.009042
 6216 Fit       0.008544
 6217 Fit       0.007863
 6218 Fit       0.006942
 6219 Fit       0.005715
 6220 Fit       0.004090
 6221 Fit       0.001922
 6222 Fit      -0.001029
 6223 Fit       0.010271
 6224 Fit       0.009998
 6225 Fit       0.009731
 6226 Fit       0.009405
 6227 Fit       0.008962
 6228 Fit       0.008352
 6229 Fit       0.007523
 6230 Fit       0.006413
 6231 Fit       0.004941
 6232 Fit       0.002978
 6233 Fit       0.000305
 6234 Fit       0.010424
 6235 Fit       0.010176
 6236 Fit       0.009935
 6237 Fit       0.009643
 6238 Fit       0.009250
 6239 Fit       0.008709
 6240 Fit       0.007974
 6241 Fit       0.006994
 6242 Fit       0.005700
 6243 Fit       0.003991
 6244 Fit       0.001700
 6245 Fit      -0.001472
 6246 Fit       0.010616
 6247 Fit       0.010351
 6248 Fit       0.010124
 6249 Fit       0.009876
 6250 Fit       0.009558
 6251 Fit       0.009122
 6252 Fit       0.008528
 6253 Fit       0.007731
 6254 Fit       0.006677
 6255 Fit       0.005293
 6256 Fit       0.003469
 6257 Fit       0.001015
 6258 Fit       0.010424
 6259 Fit       0.010176
 6260 Fit       0.009935
 6261 Fit       0.009643
 6262 Fit       0.009250
 6263 Fit       0.008709
 6264 Fit       0.007974
 6265 Fit       0.006994
 6266 Fit       0.005700
 6267 Fit       0.003992
 6268 Fit       0.001700
 6269 Fit      -0.001471
 6270 Fit       0.010270
 6271 Fit       0.009998
 6272 Fit       0.009731
 6273 Fit       0.009405
 6274 Fit       0.008962
 6275 Fit       0.008352
 6276 Fit       0.007523
 6277 Fit       0.006413
 6278 Fit       0.004941
 6279 Fit       0.002978
 6280 Fit       0.000306
 6281 Fit       0.010018
 6282 Fit       0.009713
 6283 Fit       0.009411
 6284 Fit       0.009042
 6285 Fit       0.008545
 6286 Fit       0.007864
 6287 Fit       0.006943
 6288 Fit       0.005715
 6289 Fit       0.004090
 6290 Fit       0.001923
 6291 Fit      -0.001028
 6292 Fit       0.009691
 6293 Fit       0.009319
 6294 Fit       0.008946
 6295 Fit       0.008480
 6296 Fit       0.007845
 6297 Fit       0.006973
 6298 Fit       0.005792
 6299 Fit       0.004214
 6300 Fit       0.002115
 6301 Fit       0.008835
 6302 Fit       0.008368
 6303 Fit       0.007777
 6304 Fit       0.006969
 6305 Fit       0.005867
 6306 Fit       0.004395
 6307 Fit       0.002476
 6308 Fit       0.007967
 6309 Fit       0.007271
 6310 Fit       0.006329
 6311 Fit       0.005057
 6312 Fit      -0.014593
 6313 Fit      -0.008165
 6314 Fit      -0.003334
 6315 Fit      -0.014569
 6316 Fit      -0.008644
 6317 Fit      -0.004106
 6318 Fit      -0.000547
 6319 Fit       0.002302
 6320 Fit       0.004627
 6321 Fit       0.006557
 6322 Fit      -0.016764
 6323 Fit      -0.010669
 6324 Fit      -0.005924
 6325 Fit      -0.002185
 6326 Fit       0.000797
 6327 Fit       0.003203
 6328 Fit       0.005165
 6329 Fit       0.006779
 6330 Fit       0.008117
 6331 Fit      -0.015976
 6332 Fit      -0.010534
 6333 Fit      -0.006083
 6334 Fit      -0.002484
 6335 Fit       0.000418
 6336 Fit       0.002761
 6337 Fit       0.004653
 6338 Fit       0.006180
 6339 Fit       0.007408
 6340 Fit       0.008389
 6341 Fit      -0.013753
 6342 Fit      -0.009549
 6343 Fit      -0.005748
 6344 Fit      -0.002494
 6345 Fit       0.000217
 6346 Fit       0.002437
 6347 Fit       0.004234
 6348 Fit       0.005669
 6349 Fit       0.006794
 6350 Fit       0.007653
 6351 Fit       0.008278
 6352 Fit      -0.009347
 6353 Fit      -0.006408
 6354 Fit      -0.003421
 6355 Fit      -0.000714
 6356 Fit       0.001593
 6357 Fit       0.003485
 6358 Fit       0.004986
 6359 Fit       0.006133
 6360 Fit       0.006964
 6361 Fit       0.007506
 6362 Fit       0.007776
 6363 Fit      -0.005153
 6364 Fit      -0.006180
 6365 Fit      -0.005432
 6366 Fit      -0.003593
 6367 Fit      -0.001356
 6368 Fit       0.000829
 6369 Fit       0.002741
 6370 Fit       0.004296
 6371 Fit       0.005479
 6372 Fit       0.006303
 6373 Fit       0.006789
 6374 Fit       0.006948
 6375 Fit       0.006781
 6376 Fit       0.001244
 6377 Fit      -0.000722
 6378 Fit      -0.002065
 6379 Fit      -0.002038
 6380 Fit      -0.000851
 6381 Fit       0.000877
 6382 Fit       0.002631
 6383 Fit       0.004121
 6384 Fit       0.005225
 6385 Fit       0.005908
 6386 Fit       0.006174
 6387 Fit       0.006041
 6388 Fit       0.005544
 6389 Fit       0.004778
 6390 Fit       0.003954
 6391 Fit       0.003366
 6392 Fit       0.003099
 6393 Fit       0.002622
 6394 Fit       0.001956
 6395 Fit       0.000771
 6396 Fit       0.000558
 6397 Fit       0.001547
 6398 Fit       0.003050
 6399 Fit       0.004384
 6400 Fit       0.005201
 6401 Fit       0.005413
 6402 Fit       0.005080
 6403 Fit       0.004414
 6404 Fit       0.003725
 6405 Fit       0.003040
 6406 Fit       0.002793
 6407 Fit       0.002383
 6408 Fit       0.003390
 6409 Fit       0.004447
 6410 Fit       0.004491
 6411 Fit       0.003771
 6412 Fit       0.003639
 6413 Fit       0.003636
 6414 Fit       0.002789
 6415 Fit       0.002377
 6416 Fit       0.003385
 6417 Fit       0.004444
 6418 Fit       0.004489
 6419 Fit       0.003770
 6420 Fit       0.001952
 6421 Fit       0.000761
 6422 Fit       0.000547
 6423 Fit       0.001537
 6424 Fit       0.003044
 6425 Fit       0.004379
 6426 Fit       0.005199
 6427 Fit       0.005411
 6428 Fit       0.005080
 6429 Fit       0.004415
 6430 Fit       0.003727
 6431 Fit       0.003040
 6432 Fit       0.001239
 6433 Fit      -0.000734
 6434 Fit      -0.002081
 6435 Fit      -0.002054
 6436 Fit      -0.000865
 6437 Fit       0.000866
 6438 Fit       0.002623
 6439 Fit       0.004116
 6440 Fit       0.005222
 6441 Fit       0.005906
 6442 Fit       0.006173
 6443 Fit       0.006040
 6444 Fit       0.005544
 6445 Fit       0.004780
 6446 Fit       0.003957
 6447 Fit       0.003371
 6448 Fit       0.003104
 6449 Fit       0.002624
 6450 Fit      -0.005178
 6451 Fit      -0.006207
 6452 Fit      -0.005455
 6453 Fit      -0.003611
 6454 Fit      -0.001370
 6455 Fit       0.000819
 6456 Fit       0.002734
 6457 Fit       0.004291
 6458 Fit       0.005475
 6459 Fit       0.006301
 6460 Fit       0.006787
 6461 Fit       0.006947
 6462 Fit       0.006780
 6463 Fit      -0.009376
 6464 Fit      -0.006430
 6465 Fit      -0.003437
 6466 Fit      -0.000726
 6467 Fit       0.001585
 6468 Fit       0.003480
 6469 Fit       0.004982
 6470 Fit       0.006130
 6471 Fit       0.006961
 6472 Fit       0.007504
 6473 Fit       0.007774
 6474 Fit      -0.013787
 6475 Fit      -0.009574
 6476 Fit      -0.005765
 6477 Fit      -0.002506
 6478 Fit       0.000208
 6479 Fit       0.002431
 6480 Fit       0.004230
 6481 Fit       0.005665
 6482 Fit       0.006791
 6483 Fit       0.007650
 6484 Fit       0.008276
 6485 Fit      -0.016008
 6486 Fit      -0.010555
 6487 Fit      -0.006097
 6488 Fit      -0.002494
 6489 Fit       0.000412
 6490 Fit       0.002756
 6491 Fit       0.004650
 6492 Fit       0.006177
 6493 Fit       0.007406
 6494 Fit       0.008387
 6495 Fit      -0.016790
 6496 Fit      -0.010685
 6497 Fit      -0.005934
 6498 Fit      -0.002192
 6499 Fit       0.000793
 6500 Fit       0.003201
 6501 Fit       0.005163
 6502 Fit       0.006777
 6503 Fit       0.008116
 6504 Fit      -0.014583
 6505 Fit      -0.008652
 6506 Fit      -0.004110
 6507 Fit      -0.000549
 6508 Fit       0.002302
 6509 Fit       0.004627
 6510 Fit       0.006557
 6511 Fit      -0.014598
 6512 Fit      -0.008166
 6513 Fit      -0.003334
 -----------------------------------------------------------------
 Leave Link  602 at Thu Nov  2 13:05:27 2023, MaxMem=   134217728 cpu:               0.6 elap:               0.6

 Test job not archived.
 1\1\GINC-LAC-078\FOpt\RHF\6-31G(d)\C7H14O2\RAHNAMOU\02-Nov-2023\0\\#HF
 /6-31G* SCF=tight Pop=MK iop(6/33=2) iop(6/42=6) opt\\mobley_1017962\\
 0,1\C,0.0314619402,1.0516214168,0.1212635714\C,-0.1616241927,1.4305012
 162,1.5890799306\C,0.9128248023,0.8408949333,2.5043673177\C,0.72013840
 67,1.2198539339,3.9735004982\C,1.799651824,0.6235794898,4.8717414672\C
 ,1.6337856398,0.9827764196,6.3282864014\O,0.7671382707,1.6598794916,6.
 7792979332\O,2.5925703509,0.441617894,7.0691138824\C,2.5538331712,0.70
 20271977,8.4603457927\H,-0.745205992,1.4841408184,-0.501736567\H,0.989
 0523054,1.4035671207,-0.2521881681\H,0.0011574414,-0.0260307309,-0.013
 1271079\H,-1.1411586863,1.0955859149,1.9229323395\H,-0.1608292696,2.51
 39035563,1.6857879849\H,0.9118961934,-0.2436128835,2.405174779\H,1.892
 9462052,1.1756689103,2.1677868085\H,0.7233106356,2.300180124,4.0794872
 203\H,-0.2544483172,0.8862200482,4.3159330089\H,1.8134371685,-0.460851
 8162,4.8042059126\H,2.790123882,0.9509203685,4.5674364806\H,3.40172495
 21,0.1844119364,8.8812402569\H,1.6357761935,0.3292429414,8.8913557328\
 H,2.6304370751,1.7629016987,8.6507145243\\Version=ES64L-G16RevC.01\Sta
 te=1-A\HF=-422.9767335\RMSD=6.520e-09\RMSF=2.851e-06\Dipole=0.5515202,
 -0.3956432,-0.0778728\Quadrupole=-1.3597326,-1.2841267,2.6438593,1.817
 6387,3.7590737,-2.2228542\PG=C01 [X(C7H14O2)]\\@


 THE SCIENTIFIC THEORIST IS NOT TO BE ENVIED. FOR NATURE, OR MORE
 PRECISELY EXPERIMENT, IS AN INEXORABLE AND NOT VERY FRIENDLY JUDGE OF HIS
 WORK.  IT NEVER SAYS "YES" TO A THEORY. IN THE MOST FAVORABLE CASES
 IT SAYS "MAYBE", AND IN THE GREAT MAJORITY OF CASES SIMPLY "NO"...
 PROBABLY EVERY THEORY WILL SOME DAY EXPERIENCE ITS "NO" - MOST
 THEORIES, SOON AFTER CONCEPTION.  -- A.EINSTEIN, NOV 11, 1922.
 Job cpu time:       0 days  0 hours  1 minutes 48.4 seconds.
 Elapsed time:       0 days  0 hours  1 minutes 47.0 seconds.
 File lengths (MBytes):  RWF=    272 Int=      0 D2E=      0 Chk=     32 Scr=     32
 Normal termination of Gaussian 16 at Thu Nov  2 13:05:28 2023.
