 Entering Gaussian System, Link 0=/opt/software/Gaussian/g16-AVX2-C.01/g16/g16
 Input=mobley_1046331.com
 Output=mobley_1046331.log
 Initial command:
 /opt/software/Gaussian/g16-AVX2-C.01/g16/l1.exe "/mnt/gs21/scratch/rahnamou/Gau-8944.inp" -scrdir="/mnt/gs21/scratch/rahnamou/"
 Entering Link 1 = /opt/software/Gaussian/g16-AVX2-C.01/g16/l1.exe PID=      8953.
  
 Copyright (c) 1988-2019, Gaussian, Inc.  All Rights Reserved.
  
 This is part of the Gaussian(R) 16 program.  It is based on
 the Gaussian(R) 09 system (copyright 2009, Gaussian, Inc.),
 the Gaussian(R) 03 system (copyright 2003, Gaussian, Inc.),
 the Gaussian(R) 98 system (copyright 1998, Gaussian, Inc.),
 the Gaussian(R) 94 system (copyright 1995, Gaussian, Inc.),
 the Gaussian 92(TM) system (copyright 1992, Gaussian, Inc.),
 the Gaussian 90(TM) system (copyright 1990, Gaussian, Inc.),
 the Gaussian 88(TM) system (copyright 1988, Gaussian, Inc.),
 the Gaussian 86(TM) system (copyright 1986, Carnegie Mellon
 University), and the Gaussian 82(TM) system (copyright 1983,
 Carnegie Mellon University). Gaussian is a federally registered
 trademark of Gaussian, Inc.
  
 This software contains proprietary and confidential information,
 including trade secrets, belonging to Gaussian, Inc.
  
 This software is provided under written license and may be
 used, copied, transmitted, or stored only in accord with that
 written license.
  
 The following legend is applicable only to US Government
 contracts under FAR:
  
                    RESTRICTED RIGHTS LEGEND
  
 Use, reproduction and disclosure by the US Government is
 subject to restrictions as set forth in subparagraphs (a)
 and (c) of the Commercial Computer Software - Restricted
 Rights clause in FAR 52.227-19.
  
 Gaussian, Inc.
 340 Quinnipiac St., Bldg. 40, Wallingford CT 06492
  
  
 ---------------------------------------------------------------
 Warning -- This program may not be used in any manner that
 competes with the business of Gaussian, Inc. or will provide
 assistance to any competitor of Gaussian, Inc.  The licensee
 of this program is prohibited from giving any competitor of
 Gaussian, Inc. access to this program.  By using this program,
 the user acknowledges that Gaussian, Inc. is engaged in the
 business of creating and licensing software in the field of
 computational chemistry and represents and warrants to the
 licensee that it is not a competitor of Gaussian, Inc. and that
 it will not use this program in any manner prohibited above.
 ---------------------------------------------------------------
  

 Cite this work as:
 Gaussian 16, Revision C.01,
 M. J. Frisch, G. W. Trucks, H. B. Schlegel, G. E. Scuseria, 
 M. A. Robb, J. R. Cheeseman, G. Scalmani, V. Barone, 
 G. A. Petersson, H. Nakatsuji, X. Li, M. Caricato, A. V. Marenich, 
 J. Bloino, B. G. Janesko, R. Gomperts, B. Mennucci, H. P. Hratchian, 
 J. V. Ortiz, A. F. Izmaylov, J. L. Sonnenberg, D. Williams-Young, 
 F. Ding, F. Lipparini, F. Egidi, J. Goings, B. Peng, A. Petrone, 
 T. Henderson, D. Ranasinghe, V. G. Zakrzewski, J. Gao, N. Rega, 
 G. Zheng, W. Liang, M. Hada, M. Ehara, K. Toyota, R. Fukuda, 
 J. Hasegawa, M. Ishida, T. Nakajima, Y. Honda, O. Kitao, H. Nakai, 
 T. Vreven, K. Throssell, J. A. Montgomery, Jr., J. E. Peralta, 
 F. Ogliaro, M. J. Bearpark, J. J. Heyd, E. N. Brothers, K. N. Kudin, 
 V. N. Staroverov, T. A. Keith, R. Kobayashi, J. Normand, 
 K. Raghavachari, A. P. Rendell, J. C. Burant, S. S. Iyengar, 
 J. Tomasi, M. Cossi, J. M. Millam, M. Klene, C. Adamo, R. Cammi, 
 J. W. Ochterski, R. L. Martin, K. Morokuma, O. Farkas, 
 J. B. Foresman, and D. J. Fox, Gaussian, Inc., Wallingford CT, 2019.
 
 ******************************************
 Gaussian 16:  ES64L-G16RevC.01  3-Jul-2019
                 2-Nov-2023 
 ******************************************
 %chk=mobley_1046331.chk
 %mem=1GB
 %NProcShared=1
 Will use up to    1 processors via shared memory.
 -------------------------------------------------------
 #HF/6-31G* SCF=tight Pop=MK iop(6/33=2) iop(6/42=6) opt
 -------------------------------------------------------
 1/18=20,19=15,38=1/1,3;
 2/9=110,12=2,17=6,18=5,40=1/2;
 3/5=1,6=6,7=1,11=9,25=1,30=1,71=1/1,2,3;
 4//1;
 5/5=2,32=2,38=5/2;
 6/7=2,8=2,9=2,10=2,15=8,20=1,28=1,33=2,42=6/1,2;
 7//1,2,3,16;
 1/18=20,19=15/3(2);
 2/9=110/2;
 99//99;
 2/9=110/2;
 3/5=1,6=6,7=1,11=9,25=1,30=1,71=1/1,2,3;
 4/5=5,16=3,69=1/1;
 5/5=2,32=2,38=5/2;
 7//1,2,3,16;
 1/18=20,19=15/3(-5);
 2/9=110/2;
 6/7=2,8=2,9=2,10=2,15=8,19=2,20=1,28=1,33=2,42=6/1,2;
 99/9=1/99;
 --------------
 mobley_1046331
 --------------
 Symbolic Z-matrix:
 Charge =  0 Multiplicity = 1
 C                     1.885    -1.036    -0.112 
 C                     2.921    -1.631     0.608 
 C                     2.878    -1.652     2.002 
 C                     1.8      -1.079     2.676 
 C                     0.764    -0.484     1.955 
 C                     0.807    -0.463     0.561 
 O                     1.759    -1.098     4.036 
 C                     2.36      0.015     4.633 
 O                     2.892     0.956     4.066 
 H                     1.918    -1.021    -1.198 
 H                     3.76     -2.077     0.083 
 H                     3.689    -2.115     2.558 
 H                    -0.079    -0.035     2.474 
 H                     0.        0.        0. 
 H                     2.28     -0.085     5.727 
 

 GradGradGradGradGradGradGradGradGradGradGradGradGradGradGradGradGradGrad
 Berny optimization.
 Initialization pass.
                           ----------------------------
                           !    Initial Parameters    !
                           ! (Angstroms and Degrees)  !
 --------------------------                            --------------------------
 ! Name  Definition              Value          Derivative Info.                !
 --------------------------------------------------------------------------------
 ! R1    R(1,2)                  1.3949         estimate D2E/DX2                !
 ! R2    R(1,6)                  1.394          estimate D2E/DX2                !
 ! R3    R(1,10)                 1.0866         estimate D2E/DX2                !
 ! R4    R(2,3)                  1.3948         estimate D2E/DX2                !
 ! R5    R(2,11)                 1.0856         estimate D2E/DX2                !
 ! R6    R(3,4)                  1.3945         estimate D2E/DX2                !
 ! R7    R(3,12)                 1.0868         estimate D2E/DX2                !
 ! R8    R(4,5)                  1.3954         estimate D2E/DX2                !
 ! R9    R(4,7)                  1.3608         estimate D2E/DX2                !
 ! R10   R(5,6)                  1.3948         estimate D2E/DX2                !
 ! R11   R(5,13)                 1.087          estimate D2E/DX2                !
 ! R12   R(6,14)                 1.0864         estimate D2E/DX2                !
 ! R13   R(7,8)                  1.3987         estimate D2E/DX2                !
 ! R14   R(8,9)                  1.2207         estimate D2E/DX2                !
 ! R15   R(8,15)                 1.1015         estimate D2E/DX2                !
 ! A1    A(2,1,6)              120.0312         estimate D2E/DX2                !
 ! A2    A(2,1,10)             119.948          estimate D2E/DX2                !
 ! A3    A(6,1,10)             120.0207         estimate D2E/DX2                !
 ! A4    A(1,2,3)              119.9597         estimate D2E/DX2                !
 ! A5    A(1,2,11)             119.9759         estimate D2E/DX2                !
 ! A6    A(3,2,11)             120.0644         estimate D2E/DX2                !
 ! A7    A(2,3,4)              120.045          estimate D2E/DX2                !
 ! A8    A(2,3,12)             119.6488         estimate D2E/DX2                !
 ! A9    A(4,3,12)             120.3061         estimate D2E/DX2                !
 ! A10   A(3,4,5)              119.9601         estimate D2E/DX2                !
 ! A11   A(3,4,7)              120.0402         estimate D2E/DX2                !
 ! A12   A(5,4,7)              119.9996         estimate D2E/DX2                !
 ! A13   A(4,5,6)              119.9949         estimate D2E/DX2                !
 ! A14   A(4,5,13)             120.3446         estimate D2E/DX2                !
 ! A15   A(6,5,13)             119.6605         estimate D2E/DX2                !
 ! A16   A(1,6,5)              120.0091         estimate D2E/DX2                !
 ! A17   A(1,6,14)             120.0186         estimate D2E/DX2                !
 ! A18   A(5,6,14)             119.9723         estimate D2E/DX2                !
 ! A19   A(4,7,8)              113.7365         estimate D2E/DX2                !
 ! A20   A(7,8,9)              127.0448         estimate D2E/DX2                !
 ! A21   A(7,8,15)             108.6918         estimate D2E/DX2                !
 ! A22   A(9,8,15)             124.2634         estimate D2E/DX2                !
 ! D1    D(6,1,2,3)             -0.0199         estimate D2E/DX2                !
 ! D2    D(6,1,2,11)           179.9959         estimate D2E/DX2                !
 ! D3    D(10,1,2,3)          -179.9129         estimate D2E/DX2                !
 ! D4    D(10,1,2,11)            0.1029         estimate D2E/DX2                !
 ! D5    D(2,1,6,5)              0.02           estimate D2E/DX2                !
 ! D6    D(2,1,6,14)          -179.9742         estimate D2E/DX2                !
 ! D7    D(10,1,6,5)           179.9128         estimate D2E/DX2                !
 ! D8    D(10,1,6,14)           -0.0813         estimate D2E/DX2                !
 ! D9    D(1,2,3,4)              0.0186         estimate D2E/DX2                !
 ! D10   D(1,2,3,12)          -179.8656         estimate D2E/DX2                !
 ! D11   D(11,2,3,4)          -179.9972         estimate D2E/DX2                !
 ! D12   D(11,2,3,12)            0.1186         estimate D2E/DX2                !
 ! D13   D(2,3,4,5)             -0.0173         estimate D2E/DX2                !
 ! D14   D(2,3,4,7)           -179.9143         estimate D2E/DX2                !
 ! D15   D(12,3,4,5)           179.8661         estimate D2E/DX2                !
 ! D16   D(12,3,4,7)            -0.0309         estimate D2E/DX2                !
 ! D17   D(3,4,5,6)              0.0173         estimate D2E/DX2                !
 ! D18   D(3,4,5,13)          -179.9652         estimate D2E/DX2                !
 ! D19   D(7,4,5,6)            179.9144         estimate D2E/DX2                !
 ! D20   D(7,4,5,13)            -0.0681         estimate D2E/DX2                !
 ! D21   D(3,4,7,8)             89.9703         estimate D2E/DX2                !
 ! D22   D(5,4,7,8)            -89.9267         estimate D2E/DX2                !
 ! D23   D(4,5,6,1)             -0.0186         estimate D2E/DX2                !
 ! D24   D(4,5,6,14)           179.9755         estimate D2E/DX2                !
 ! D25   D(13,5,6,1)           179.964          estimate D2E/DX2                !
 ! D26   D(13,5,6,14)           -0.0419         estimate D2E/DX2                !
 ! D27   D(4,7,8,9)              0.0086         estimate D2E/DX2                !
 ! D28   D(4,7,8,15)           179.9878         estimate D2E/DX2                !
 ! D29   D(7,8,9,15)           179.9761         estimate D2E/DX2                !
 --------------------------------------------------------------------------------
 Trust Radius=3.00D-01 FncErr=1.00D-07 GrdErr=1.00D-07 EigMax=2.50D+02 EigMin=1.00D-04
 Number of steps in this run=     76 maximum allowed number of steps=    100.
 GradGradGradGradGradGradGradGradGradGradGradGradGradGradGradGradGradGrad

                          Input orientation:                          
 ---------------------------------------------------------------------
 Center     Atomic      Atomic             Coordinates (Angstroms)
 Number     Number       Type             X           Y           Z
 ---------------------------------------------------------------------
      1          6           0        1.885000   -1.036000   -0.112000
      2          6           0        2.921000   -1.631000    0.608000
      3          6           0        2.878000   -1.652000    2.002000
      4          6           0        1.800000   -1.079000    2.676000
      5          6           0        0.764000   -0.484000    1.955000
      6          6           0        0.807000   -0.463000    0.561000
      7          8           0        1.759000   -1.098000    4.036000
      8          6           0        2.360000    0.015000    4.633000
      9          8           0        2.892000    0.956000    4.066000
     10          1           0        1.918000   -1.021000   -1.198000
     11          1           0        3.760000   -2.077000    0.083000
     12          1           0        3.689000   -2.115000    2.558000
     13          1           0       -0.079000   -0.035000    2.474000
     14          1           0        0.000000    0.000000    0.000000
     15          1           0        2.280000   -0.085000    5.727000
 ---------------------------------------------------------------------
                    Distance matrix (angstroms):
                    1          2          3          4          5
     1  C    0.000000
     2  C    1.394891   0.000000
     3  C    2.415471   1.394821   0.000000
     4  C    2.789627   2.416189   1.394521   0.000000
     5  C    2.415333   2.789743   2.415663   1.395407   0.000000
     6  C    1.394038   2.415663   2.789129   2.416346   1.394821
     7  O    4.150376   3.658622   2.386678   1.360751   2.386961
     8  C    4.883160   4.384594   3.157432   2.310906   3.157198
     9  O    4.736855   4.318700   3.325952   2.695513   3.325403
    10  H    1.086605   2.154007   3.399965   3.876231   3.400220
    11  H    2.153446   1.085570   2.154324   3.400184   3.875313
    12  H    3.398170   2.150949   1.086842   2.157670   3.402851
    13  H    3.398043   3.876748   3.403134   2.159023   1.087019
    14  H    2.153849   3.400304   3.875563   3.400767   2.154061
    15  H    5.929110   5.385644   4.085183   3.244540   4.084782
                    6          7          8          9         10
     6  C    0.000000
     7  O    3.658573   0.000000
     8  C    4.384230   1.398706   0.000000
     9  O    4.318080   2.345955   1.220653   0.000000
    10  H    2.154012   5.236981   5.938790   5.706742   0.000000
    11  H    3.399072   4.537472   5.199900   5.081024   2.479730
    12  H    3.875956   2.635085   3.257110   3.512878   4.294277
    13  H    2.151220   2.635917   3.257684   3.513316   4.294623
    14  H    1.086434   4.537508   5.199472   5.080350   2.481203
    15  H    5.385180   2.038895   1.101470   2.053569   6.997340
                   11         12         13         14         15
    11  H    0.000000
    12  H    2.476310   0.000000
    13  H    4.962315   4.304797   0.000000
    14  H    4.296326   4.962390   2.475508   0.000000
    15  H    6.165485   4.018550   4.018630   6.164751   0.000000
 Stoichiometry    C7H6O2
 Framework group  C1[X(C7H6O2)]
 Deg. of freedom    39
 Full point group                 C1      NOp   1
 Largest Abelian subgroup         C1      NOp   1
 Largest concise Abelian subgroup C1      NOp   1
                         Standard orientation:                         
 ---------------------------------------------------------------------
 Center     Atomic      Atomic             Coordinates (Angstroms)
 Number     Number       Type             X           Y           Z
 ---------------------------------------------------------------------
      1          6           0        2.432118    0.000556    0.357733
      2          6           0        1.771441   -1.207913    0.136758
      3          6           0        0.448652   -1.207847   -0.305685
      4          6           0       -0.213321   -0.000672   -0.527518
      5          6           0        0.448313    1.207816   -0.306253
      6          6           0        1.771102    1.207751    0.136190
      7          8           0       -1.504356   -0.000721   -0.957483
      8          6           0       -2.443103   -0.000025    0.079403
      9          8           0       -2.214397    0.000740    1.278439
     10          1           0        3.463061    0.000284    0.701051
     11          1           0        2.287071   -2.147458    0.309503
     12          1           0       -0.061971   -2.152366   -0.474135
     13          1           0       -0.061870    2.152431   -0.476623
     14          1           0        2.286012    2.148867    0.307964
     15          1           0       -3.453490    0.000104   -0.359179
 ---------------------------------------------------------------------
 Rotational constants (GHZ):           3.6540188           1.1972254           1.0959175
 Standard basis: 6-31G(d) (6D, 7F)
 There are   147 symmetry adapted cartesian basis functions of A   symmetry.
 There are   147 symmetry adapted basis functions of A   symmetry.
   147 basis functions,   276 primitive gaussians,   147 cartesian basis functions
    32 alpha electrons       32 beta electrons
       nuclear repulsion energy       408.3763195574 Hartrees.
 NAtoms=   15 NActive=   15 NUniq=   15 SFac= 1.00D+00 NAtFMM=   60 NAOKFM=F Big=F
 Integral buffers will be    131072 words long.
 Raffenetti 1 integral format.
 Two-electron integral symmetry is turned on.
 One-electron integrals computed using PRISM.
 NBasis=   147 RedAO= T EigKep=  4.62D-04  NBF=   147
 NBsUse=   147 1.00D-06 EigRej= -1.00D+00 NBFU=   147
 ExpMin= 1.61D-01 ExpMax= 5.48D+03 ExpMxC= 8.25D+02 IAcc=3 IRadAn=         5 AccDes= 0.00D+00
 Harris functional with IExCor=  205 and IRadAn=       5 diagonalized for initial guess.
 HarFok:  IExCor=  205 AccDes= 0.00D+00 IRadAn=         5 IDoV= 1 UseB2=F ITyADJ=14
 ICtDFT=  3500011 ScaDFX=  1.000000  1.000000  1.000000  1.000000
 FoFCou: FMM=F IPFlag=           0 FMFlag=      100000 FMFlg1=           0
         NFxFlg=           0 DoJE=T BraDBF=F KetDBF=T FulRan=T
         wScrn=  0.000000 ICntrl=       500 IOpCl=  0 I1Cent=   200000004 NGrid=           0
         NMat0=    1 NMatS0=      1 NMatT0=    0 NMatD0=    1 NMtDS0=    0 NMtDT0=    0
 Petite list used in FoFCou.
 Keep R1 ints in memory in canonical form, NReq=60793043.
 Requested convergence on RMS density matrix=1.00D-08 within 128 cycles.
 Requested convergence on MAX density matrix=1.00D-06.
 Requested convergence on             energy=1.00D-06.
 No special actions if energy rises.
 SCF Done:  E(RHF) =  -418.288047955     A.U. after   15 cycles
            NFock= 15  Conv=0.53D-08     -V/T= 2.0028
 SCF density gives NOpUse=  1 NOpAll=  1.

 **********************************************************************

            Population analysis using the SCF Density.

 **********************************************************************

 Orbital symmetries:
 BldTbl:  Degeneracy threshold= 1.00D-02
       Occupied  (A) (A) (A) (A) (A) (A) (A) (A) (A) (A) (A) (A)
                 (A) (A) (A) (A) (A) (A) (A) (A) (A) (A) (A) (A)
                 (A) (A) (A) (A) (A) (A) (A) (A)
       Virtual   (A) (A) (A) (A) (A) (A) (A) (A) (A) (A) (A) (A)
                 (A) (A) (A) (A) (A) (A) (A) (A) (A) (A) (A) (A)
                 (A) (A) (A) (A) (A) (A) (A) (A) (A) (A) (A) (A)
                 (A) (A) (A) (A) (A) (A) (A) (A) (A) (A) (A) (A)
                 (A) (A) (A) (A) (A) (A) (A) (A) (A) (A) (A) (A)
                 (A) (A) (A) (A) (A) (A) (A) (A) (A) (A) (A) (A)
                 (A) (A) (A) (A) (A) (A) (A) (A) (A) (A) (A) (A)
                 (A) (A) (A) (A) (A) (A) (A) (A) (A) (A) (A) (A)
                 (A) (A) (A) (A) (A) (A) (A) (A) (A) (A) (A) (A)
                 (A) (A) (A) (A) (A) (A) (A)
 The electronic state is 1-A.
 Alpha  occ. eigenvalues --  -20.63417 -20.58374 -11.40962 -11.30343 -11.24376
 Alpha  occ. eigenvalues --  -11.24365 -11.24153 -11.24144 -11.23850  -1.47221
 Alpha  occ. eigenvalues --   -1.38053  -1.15141  -1.02136  -1.02084  -0.89815
 Alpha  occ. eigenvalues --   -0.84110  -0.79625  -0.72921  -0.71149  -0.67889
 Alpha  occ. eigenvalues --   -0.67038  -0.62867  -0.59550  -0.59419  -0.58197
 Alpha  occ. eigenvalues --   -0.51999  -0.51291  -0.49808  -0.47199  -0.47083
 Alpha  occ. eigenvalues --   -0.33983  -0.33269
 Alpha virt. eigenvalues --    0.13571   0.14093   0.16000   0.23078   0.26572
 Alpha virt. eigenvalues --    0.28581   0.29785   0.32295   0.33078   0.35173
 Alpha virt. eigenvalues --    0.38003   0.40880   0.44716   0.47150   0.48965
 Alpha virt. eigenvalues --    0.52984   0.54581   0.64863   0.71670   0.73042
 Alpha virt. eigenvalues --    0.74261   0.74328   0.77717   0.79468   0.80841
 Alpha virt. eigenvalues --    0.82766   0.83089   0.83538   0.83815   0.86068
 Alpha virt. eigenvalues --    0.88759   0.91241   0.91493   0.93007   0.99513
 Alpha virt. eigenvalues --    1.01450   1.08490   1.09250   1.10217   1.10676
 Alpha virt. eigenvalues --    1.11466   1.12186   1.14548   1.18536   1.19890
 Alpha virt. eigenvalues --    1.20512   1.21433   1.26418   1.28487   1.32074
 Alpha virt. eigenvalues --    1.37691   1.40505   1.41003   1.43271   1.47764
 Alpha virt. eigenvalues --    1.49476   1.49987   1.63332   1.65368   1.68971
 Alpha virt. eigenvalues --    1.69771   1.73694   1.75751   1.77686   1.78500
 Alpha virt. eigenvalues --    1.81949   1.86817   1.88839   2.04225   2.06724
 Alpha virt. eigenvalues --    2.09494   2.12261   2.13526   2.18276   2.22379
 Alpha virt. eigenvalues --    2.22727   2.24360   2.29563   2.29640   2.39245
 Alpha virt. eigenvalues --    2.40004   2.43859   2.45180   2.47133   2.53946
 Alpha virt. eigenvalues --    2.54467   2.57795   2.62860   2.66044   2.66940
 Alpha virt. eigenvalues --    2.82768   2.86701   2.89118   2.93237   2.93649
 Alpha virt. eigenvalues --    3.01117   3.05917   3.07482   3.08578   3.09278
 Alpha virt. eigenvalues --    3.19665   3.24769   3.37833   3.40569   3.48694
 Alpha virt. eigenvalues --    3.79173   4.24267   4.50943   4.52525   4.53348
 Alpha virt. eigenvalues --    4.59328   4.66394   4.74661   4.86259   5.16435
          Condensed to atoms (all electrons):
               1          2          3          4          5          6
     1  C    4.896856   0.552830  -0.049828  -0.027680  -0.049789   0.552905
     2  C    0.552830   4.901074   0.528194  -0.040348  -0.030802  -0.044282
     3  C   -0.049828   0.528194   4.936538   0.579220  -0.053313  -0.030809
     4  C   -0.027680  -0.040348   0.579220   4.483903   0.578953  -0.040408
     5  C   -0.049789  -0.030802  -0.053313   0.578953   4.936826   0.528188
     6  C    0.552905  -0.044282  -0.030809  -0.040408   0.528188   4.901005
     7  O   -0.000002   0.003291  -0.041398   0.148101  -0.041444   0.003295
     8  C    0.000049  -0.000092  -0.003355  -0.022780  -0.003354  -0.000092
     9  O    0.000037  -0.000162   0.000910   0.002659   0.000914  -0.000162
    10  H    0.381773  -0.029546   0.002331   0.000394   0.002327  -0.029489
    11  H   -0.028945   0.380340  -0.025936   0.001385   0.000236   0.002377
    12  H    0.002531  -0.026629   0.377007  -0.031018   0.003005   0.000021
    13  H    0.002522   0.000024   0.002993  -0.030939   0.377003  -0.026623
    14  H   -0.028903   0.002372   0.000236   0.001390  -0.025998   0.380235
    15  H   -0.000000   0.000002  -0.000127   0.004107  -0.000127   0.000002
               7          8          9         10         11         12
     1  C   -0.000002   0.000049   0.000037   0.381773  -0.028945   0.002531
     2  C    0.003291  -0.000092  -0.000162  -0.029546   0.380340  -0.026629
     3  C   -0.041398  -0.003355   0.000910   0.002331  -0.025936   0.377007
     4  C    0.148101  -0.022780   0.002659   0.000394   0.001385  -0.031018
     5  C   -0.041444  -0.003354   0.000914   0.002327   0.000236   0.003005
     6  C    0.003295  -0.000092  -0.000162  -0.029489   0.002377   0.000021
     7  O    8.487757   0.231270  -0.060702   0.000001  -0.000044  -0.000620
     8  C    0.231270   4.280682   0.559035  -0.000000  -0.000003   0.000596
     9  O   -0.060702   0.559035   8.040405   0.000000  -0.000001  -0.000051
    10  H    0.000001  -0.000000   0.000000   0.470386  -0.001335  -0.000101
    11  H   -0.000044  -0.000003  -0.000001  -0.001335   0.463603  -0.001692
    12  H   -0.000620   0.000596  -0.000051  -0.000101  -0.001692   0.463600
    13  H   -0.000609   0.000591  -0.000051  -0.000100   0.000009  -0.000094
    14  H   -0.000044  -0.000003  -0.000001  -0.001342  -0.000109   0.000009
    15  H   -0.064768   0.401313  -0.043842   0.000000  -0.000000  -0.000053
              13         14         15
     1  C    0.002522  -0.028903  -0.000000
     2  C    0.000024   0.002372   0.000002
     3  C    0.002993   0.000236  -0.000127
     4  C   -0.030939   0.001390   0.004107
     5  C    0.377003  -0.025998  -0.000127
     6  C   -0.026623   0.380235   0.000002
     7  O   -0.000609  -0.000044  -0.064768
     8  C    0.000591  -0.000003   0.401313
     9  O   -0.000051  -0.000001  -0.043842
    10  H   -0.000100  -0.001342   0.000000
    11  H    0.000009  -0.000109  -0.000000
    12  H   -0.000094   0.000009  -0.000053
    13  H    0.463451  -0.001693  -0.000053
    14  H   -0.001693   0.463872  -0.000000
    15  H   -0.000053  -0.000000   0.499453
 Mulliken charges:
               1
     1  C   -0.204357
     2  C   -0.196267
     3  C   -0.222664
     4  C    0.393060
     5  C   -0.222624
     6  C   -0.196163
     7  O   -0.664082
     8  C    0.556142
     9  O   -0.498988
    10  H    0.204699
    11  H    0.210116
    12  H    0.213488
    13  H    0.213568
    14  H    0.209980
    15  H    0.204092
 Sum of Mulliken charges =  -0.00000
 Mulliken charges with hydrogens summed into heavy atoms:
               1
     1  C    0.000343
     2  C    0.013849
     3  C   -0.009176
     4  C    0.393060
     5  C   -0.009056
     6  C    0.013817
     7  O   -0.664082
     8  C    0.760234
     9  O   -0.498988
 DipInt: DoE/N= T F RetVal/Mat= T F Init=T NMatP=  1 IDeriv=0 Min/MaxMlt=  0  4
 Entering OneElI...
 OneElI was handed   134159890 working-precision words.
 Multipole integrals L=0 to 4 MinM= 0 MaxM= 0.
 Requested accuracy = 0.1000D-12
 ShPair: Thresh= 1.00D-13 NBox=     0 BxSize= 0.00D+00 RnKept= 1.32D+01
         NSMCal=                 1176 NSMKep=                1115
 PrmmSu-InSpLW:  IPartL=    0 NPrtUS=    1 NPrtUL=    1 DoSpLW=F IThBeg=    0 IThEnd=    0 NThAct=    1.
 PrSmSu:  IncTry=   512 NBBP=           1115 NTPThr=   100 NPartT=    1 Incr=          11 LDynOK=F GPUOK=F.
 PrsmSu:  NPrtUS=   1 ThrOK=F IAlg=2 LenDen=           0 ISkipM=0 DoSpLW=F IThBeg=    0 IThEnd=    0.
 Prism:   IPart=     0 DynPar=F LinDyn=F Incr=          11.
 PRISM was handed   134050431 working-precision words and  1115 shell-pairs
 IPart=  0 NShTot=        1115 NBatch=          41 AvBLen=        27.2
 PrsmSu-ThDecC:  IPartSL=    0    0 NPrtUSL=    1    1 IThBeg=    0 IThEnd=    0 CPU=   -1 GPU=   -1 NThAct=    1.
 PrSmSu:  NxtVal=             12.
 Electronic moments (au):
        -64.00000000          0.11999710         -0.00058594         -0.54180714
       -758.06836829       -224.73626927       -135.31503736         -0.00141015
          4.64981636         -0.00753094        118.97556731         -0.09752841
        -62.15605037       -402.43666956         -0.18194661       -411.54350766
        245.08110643         -0.05903639         30.63117252          0.25725334
     -16496.90618663      -2458.88984071       -827.99097448          0.32608449
        153.91444868         -0.28275347          0.50273828        316.53254294
         -0.16852607      -1887.89935284      -1799.58554710       -280.29705027
         -0.42003137       -100.05747019          0.20945698
 Electronic spatial extent (au):  <R**2>=           1118.1197
 DipInt: DoE/N= F T RetVal/Mat= T F Init=T NMatP=  1 IDeriv=0 Min/MaxMlt=  0  4
 Nuclear    moments (au):
         64.00000000          0.00000000          0.00000000         -0.00000000
        726.19723374        191.07850053         91.04340157         -0.00000000
          0.00000000         -0.00000000       -157.33996693          0.10346081
         60.19137398        400.77593718          0.15006123        404.63129646
       -242.96739365          0.05665368        -30.51969723         -0.25465970
      14236.67258113       1741.90934368        371.67184072         -0.45438441
        -12.14806737          0.25509171         -0.59694345       -308.63546628
          0.15743382       1361.12316285       1210.40544298         62.97900522
          0.32835093        109.89485871         -0.22648302
 Total      moments (au):
         -0.00000000          0.11999710         -0.00058594         -0.54180714
        -31.87113456        -33.65776874        -44.27163579         -0.00141015
          4.64981636         -0.00753094        -38.36439961          0.00593240
         -1.96467639         -1.66073238         -0.03188537         -6.91221120
          2.11371278         -0.00238271          0.11147530          0.00259364
      -2260.23360550       -716.98049703       -456.31913375         -0.12829992
        141.76638132         -0.02766176         -0.09420517          7.89707665
         -0.01109225       -526.77618998       -589.18010412       -217.31804505
         -0.09168045          9.83738852         -0.01702605
 Traceless Quadrup. (au):
          4.72904514          2.94241096         -7.67145609         -0.00141015
          4.64981636         -0.00753094
 Charge=             -0.0000 electrons
 Dipole moment (field-independent basis, Debye):
    X=              0.3050    Y=             -0.0015    Z=             -1.3771  Tot=              1.4105
 Quadrupole moment (field-independent basis, Debye-Ang):
   XX=            -42.8678   YY=            -45.2709   ZZ=            -59.5469
   XY=             -0.0019   XZ=              6.2542   YZ=             -0.0101
 Traceless Quadrupole moment (field-independent basis, Debye-Ang):
   XX=              6.3607   YY=              3.9576   ZZ=            -10.3184
   XY=             -0.0019   XZ=              6.2542   YZ=             -0.0101
 Octapole moment (field-independent basis, Debye-Ang**2):
  XXX=            -27.3063  YYY=              0.0042  ZZZ=             -1.3984  XYY=             -1.1820
  XXY=             -0.0227  XXZ=             -4.9198  XZZ=              1.5045  YZZ=             -0.0017
  YYZ=              0.0793  XYZ=              0.0018
 Hexadecapole moment (field-independent basis, Debye-Ang**3):
 XXXX=           -851.3124 YYYY=           -270.0492 ZZZZ=           -171.8717 XXXY=             -0.0483
 XXXZ=             53.3960 YYYX=             -0.0104 YYYZ=             -0.0355 ZZZX=              2.9744
 ZZZY=             -0.0042 XXYY=           -198.4092 XXZZ=           -221.9135 YYZZ=            -81.8524
 XXYZ=             -0.0345 YYXZ=              3.7052 ZZXY=             -0.0064
 N-N= 4.083763195574D+02 E-N=-1.796318323772D+03  KE= 4.171062137582D+02
 Entering OneElI...
 OneElI was handed   134170231 working-precision words.
 Calculate electrostatic properties
    NBasis =   147  MinDer = 0  MaxDer = 0
    NGrid  =    15  NMatD  =   1
 Requested accuracy = 0.1000D-12
 ShPair: Thresh= 1.00D-13 NBox=     0 BxSize= 0.00D+00 RnKept= 1.32D+01
         NSMCal=                 1176 NSMKep=                1062
 PrmmSu-InSpLW:  IPartL=    0 NPrtUS=    1 NPrtUL=    1 DoSpLW=F IThBeg=    0 IThEnd=    0 NThAct=    1.
 PrSmSu:  IncTry=   512 NBBP=          15930 NTPThr=   100 NPartT=    1 Incr=         159 LDynOK=F GPUOK=F.
 PrsmSu:  NPrtUS=   1 ThrOK=F IAlg=2 LenDen=           0 ISkipM=0 DoSpLW=F IThBeg=    0 IThEnd=    0.
 Prism:   IPart=     0 DynPar=F LinDyn=F Incr=         159.
 PRISM was handed   134066646 working-precision words and  1062 shell-pairs
 IPart=  0 NShTot=       15930 NBatch=        1062 AvBLen=        15.0
 PrsmSu-ThDecC:  IPartSL=    0    0 NPrtUSL=    1    1 IThBeg=    0 IThEnd=    0 CPU=   -1 GPU=   -1 NThAct=    1.
 PrSmSu:  NxtVal=            160.
 --------------------------------------------------------
       Center         ----      EFG at Nuclei      ----
                      3XX-RR        3YY-RR        3ZZ-RR
 --------------------------------------------------------
     1   Atom        0.084390      0.189054     -0.273444
     2   Atom        0.124967      0.163571     -0.288538
     3   Atom        0.135771      0.107668     -0.243439
     4   Atom       -0.226481      0.376268     -0.149787
     5   Atom        0.135965      0.107466     -0.243431
     6   Atom        0.124931      0.163216     -0.288147
     7   Atom       -1.487193      1.427936      0.059257
     8   Atom        0.229869     -0.507734      0.277865
     9   Atom        1.759210     -1.058218     -0.700992
    10   Atom       -0.261060      0.142374      0.118686
    11   Atom        0.043989     -0.196270      0.152281
    12   Atom        0.043389     -0.196833      0.153444
    13   Atom        0.043519     -0.196562      0.153043
    14   Atom        0.044129     -0.195836      0.151707
    15   Atom       -0.204335      0.134457      0.069878
 --------------------------------------------------------
                        XY            XZ            YZ
 --------------------------------------------------------
     1   Atom       -0.000204      0.132856     -0.000201
     2   Atom        0.026289      0.153833      0.008954
     3   Atom       -0.014355      0.136214      0.003370
     4   Atom       -0.000394     -0.031338     -0.000428
     5   Atom        0.014320      0.136400     -0.003782
     6   Atom       -0.026817      0.153826     -0.009448
     7   Atom        0.000850      0.570936     -0.000493
     8   Atom       -0.000041      0.245669      0.000404
     9   Atom       -0.000852     -0.342773      0.000061
    10   Atom        0.000079     -0.142247      0.000030
    11   Atom        0.186068     -0.040873      0.062162
    12   Atom       -0.183458     -0.039800     -0.060788
    13   Atom        0.183092     -0.040094      0.061391
    14   Atom       -0.184907     -0.040427     -0.061498
    15   Atom        0.000031     -0.143139      0.000013
 --------------------------------------------------------


 ---------------------------------------------------------------------------------
              Nuclear Quadrupole Coupling Constant in Principal Axis System
 ---------------------------------------------------------------------------------

       Atom             a.u.   MegaHertz   Gauss  10(-4) cm-1        Axes


 ---------------------------------------------------------------------------------

 No NMR shielding tensors so no spin-rotation constants.
 Leave Link  601 at Thu Nov  2 13:04:17 2023, MaxMem=   134217728 cpu:               0.1 elap:               0.2
 FitSet:  NAtFit=    15 NAtPot=    15 NAtFrz=     0 MDM=    19 TotChg=   0.00000
 Merz-Kollman atomic radii used.
 Atom Element Radius
    1     6    1.50
    2     6    1.50
    3     6    1.50
    4     6    1.50
    5     6    1.50
    6     6    1.50
    7     8    1.40
    8     6    1.50
    9     8    1.40
   10     1    1.20
   11     1    1.20
   12     1    1.20
   13     1    1.20
   14     1    1.20
   15     1    1.20
 Generate VDW surfaces: Layer= 4 Dens= 6 Start= 1.400 Inc= 0.200

 **********************************************************************

            Electrostatic Properties Using The SCF Density.

 **********************************************************************

       Atomic Center    1 is at   2.432118  0.000556  0.357733
       Atomic Center    2 is at   1.771441 -1.207913  0.136758
       Atomic Center    3 is at   0.448652 -1.207847 -0.305685
       Atomic Center    4 is at  -0.213321 -0.000672 -0.527518
       Atomic Center    5 is at   0.448313  1.207816 -0.306253
       Atomic Center    6 is at   1.771102  1.207751  0.136190
       Atomic Center    7 is at  -1.504356 -0.000721 -0.957483
       Atomic Center    8 is at  -2.443103 -0.000025  0.079403
       Atomic Center    9 is at  -2.214397  0.000740  1.278439
       Atomic Center   10 is at   3.463061  0.000284  0.701051
       Atomic Center   11 is at   2.287071 -2.147458  0.309503
       Atomic Center   12 is at  -0.061971 -2.152366 -0.474135
       Atomic Center   13 is at  -0.061870  2.152431 -0.476623
       Atomic Center   14 is at   2.286012  2.148867  0.307964
       Atomic Center   15 is at  -3.453490  0.000104 -0.359179
      ESP Fit Center   16 is at   2.432118  0.000556  2.457733
      ESP Fit Center   17 is at   2.841808  0.000556  2.417382
      ESP Fit Center   18 is at   2.636963  0.355358  2.417382
      ESP Fit Center   19 is at   2.227273  0.355358  2.417382
      ESP Fit Center   20 is at   2.022428  0.000556  2.417382
      ESP Fit Center   21 is at   2.227273 -0.354246  2.417382
      ESP Fit Center   22 is at   2.636963 -0.354246  2.417382
      ESP Fit Center   23 is at   3.128086  0.402374  2.297880
      ESP Fit Center   24 is at   2.833936  0.696525  2.297880
      ESP Fit Center   25 is at   2.432118  0.804191  2.297880
      ESP Fit Center   26 is at   2.030300  0.696525  2.297880
      ESP Fit Center   27 is at   1.736149  0.402374  2.297880
      ESP Fit Center   28 is at   1.628483  0.000556  2.297880
      ESP Fit Center   29 is at   1.736149 -0.401262  2.297880
      ESP Fit Center   30 is at   2.030300 -0.695412  2.297880
      ESP Fit Center   31 is at   2.432118 -0.803079  2.297880
      ESP Fit Center   32 is at   2.833936 -0.695412  2.297880
      ESP Fit Center   33 is at   3.128086 -0.401262  2.297880
      ESP Fit Center   34 is at   2.952160  1.044941  2.103819
      ESP Fit Center   35 is at   2.539767  1.162277  2.103819
      ESP Fit Center   36 is at   1.285286  0.214936  2.103819
      ESP Fit Center   37 is at   1.285286 -0.213824  2.103819
      ESP Fit Center   38 is at   2.539767 -1.161165  2.103819
      ESP Fit Center   39 is at   2.952160 -1.043829  2.103819
      ESP Fit Center   40 is at   3.048978  1.351291  1.842658
      ESP Fit Center   41 is at   0.947194  0.000556  1.842658
      ESP Fit Center   42 is at   3.048978 -1.350179  1.842658
      ESP Fit Center   43 is at   0.686032  0.000556  1.524431
      ESP Fit Center   44 is at   3.851148  1.493375 -0.051956
      ESP Fit Center   45 is at   3.851148 -1.492263 -0.051956
      ESP Fit Center   46 is at   3.976656  1.174683 -0.445902
      ESP Fit Center   47 is at   3.976656 -1.173571 -0.445902
      ESP Fit Center   48 is at   4.127466  0.418422 -0.808964
      ESP Fit Center   49 is at   3.978200  0.812003 -0.808964
      ESP Fit Center   50 is at   3.739082  1.158425 -0.808964
      ESP Fit Center   51 is at   3.739082 -1.157313 -0.808964
      ESP Fit Center   52 is at   3.978200 -0.810891 -0.808964
      ESP Fit Center   53 is at   4.127466 -0.417310 -0.808964
      ESP Fit Center   54 is at   3.917042  0.000556 -1.127191
      ESP Fit Center   55 is at   3.856892  0.418908 -1.127191
      ESP Fit Center   56 is at   3.681316  0.803367 -1.127191
      ESP Fit Center   57 is at   3.681316 -0.802255 -1.127191
      ESP Fit Center   58 is at   3.856892 -0.417795 -1.127191
      ESP Fit Center   59 is at   3.598815  0.000556 -1.388353
      ESP Fit Center   60 is at   3.520031  0.422016 -1.388353
      ESP Fit Center   61 is at   3.294318  0.786555 -1.388353
      ESP Fit Center   62 is at   3.294318 -0.785443 -1.388353
      ESP Fit Center   63 is at   3.520031 -0.420904 -1.388353
      ESP Fit Center   64 is at   3.235753  0.000556 -1.582414
      ESP Fit Center   65 is at   3.128086  0.402374 -1.582414
      ESP Fit Center   66 is at   1.628483  0.000556 -1.582414
      ESP Fit Center   67 is at   3.128086 -0.401262 -1.582414
      ESP Fit Center   68 is at   2.841808  0.000556 -1.701916
      ESP Fit Center   69 is at   2.636963  0.355358 -1.701916
      ESP Fit Center   70 is at   2.022428  0.000556 -1.701916
      ESP Fit Center   71 is at   2.636963 -0.354246 -1.701916
      ESP Fit Center   72 is at   2.432118  0.000556 -1.742267
      ESP Fit Center   73 is at   1.771441 -1.207913  2.236758
      ESP Fit Center   74 is at   2.181130 -1.207913  2.196407
      ESP Fit Center   75 is at   1.566596 -0.853111  2.196407
      ESP Fit Center   76 is at   1.361751 -1.207913  2.196407
      ESP Fit Center   77 is at   1.566596 -1.562714  2.196407
      ESP Fit Center   78 is at   1.976285 -1.562714  2.196407
      ESP Fit Center   79 is at   2.575076 -1.207913  2.076905
      ESP Fit Center   80 is at   1.075472 -0.806095  2.076905
      ESP Fit Center   81 is at   0.967805 -1.207913  2.076905
      ESP Fit Center   82 is at   1.075472 -1.609730  2.076905
      ESP Fit Center   83 is at   1.369623 -1.903881  2.076905
      ESP Fit Center   84 is at   1.771441 -2.011548  2.076905
      ESP Fit Center   85 is at   2.173258 -1.903881  2.076905
      ESP Fit Center   86 is at   2.467409 -1.609730  2.076905
      ESP Fit Center   87 is at   0.779494 -0.593725  1.882844
      ESP Fit Center   88 is at   0.624608 -0.993532  1.882844
      ESP Fit Center   89 is at   0.624608 -1.422293  1.882844
      ESP Fit Center   90 is at   0.779494 -1.822100  1.882844
      ESP Fit Center   91 is at   1.068348 -2.138957  1.882844
      ESP Fit Center   92 is at   1.452159 -2.330072  1.882844
      ESP Fit Center   93 is at   2.859354 -1.629372  1.882844
      ESP Fit Center   94 is at   0.799022 -2.330143  1.621682
      ESP Fit Center   95 is at   1.154581 -2.558647  1.621682
      ESP Fit Center   96 is at   0.779551 -2.644913  1.303455
      ESP Fit Center   97 is at   3.788928 -1.622517 -0.272932
      ESP Fit Center   98 is at   3.666228 -1.624987 -0.666877
      ESP Fit Center   99 is at   3.517527 -1.207913 -1.029940
      ESP Fit Center  100 is at   1.560973 -2.941268 -1.029940
      ESP Fit Center  101 is at   3.317523 -2.019359 -1.029940
      ESP Fit Center  102 is at   3.466789 -1.625778 -1.029940
      ESP Fit Center  103 is at   3.256365 -1.207913 -1.348166
      ESP Fit Center  104 is at   1.560114 -2.677722 -1.348166
      ESP Fit Center  105 is at   1.982767 -2.677722 -1.348166
      ESP Fit Center  106 is at   2.388300 -2.558647 -1.348166
      ESP Fit Center  107 is at   2.743859 -2.330143 -1.348166
      ESP Fit Center  108 is at   3.020638 -2.010723 -1.348166
      ESP Fit Center  109 is at   3.196215 -1.626264 -1.348166
      ESP Fit Center  110 is at   2.938138 -1.207913 -1.609328
      ESP Fit Center  111 is at   2.859354 -0.786453 -1.609328
      ESP Fit Center  112 is at   1.879090 -2.369633 -1.609328
      ESP Fit Center  113 is at   2.291482 -2.252297 -1.609328
      ESP Fit Center  114 is at   2.633640 -1.993912 -1.609328
      ESP Fit Center  115 is at   2.859354 -1.629372 -1.609328
      ESP Fit Center  116 is at   2.575076 -1.207913 -1.803389
      ESP Fit Center  117 is at   2.467409 -0.806095 -1.803389
      ESP Fit Center  118 is at   2.173258 -0.511944 -1.803389
      ESP Fit Center  119 is at   1.771441 -0.404277 -1.803389
      ESP Fit Center  120 is at   1.771441 -2.011548 -1.803389
      ESP Fit Center  121 is at   2.173258 -1.903881 -1.803389
      ESP Fit Center  122 is at   2.467409 -1.609730 -1.803389
      ESP Fit Center  123 is at   2.181130 -1.207913 -1.922891
      ESP Fit Center  124 is at   1.976285 -0.853111 -1.922891
      ESP Fit Center  125 is at   1.976285 -1.562714 -1.922891
      ESP Fit Center  126 is at   1.771441 -1.207913 -1.963242
      ESP Fit Center  127 is at   0.448652 -1.207847  1.794315
      ESP Fit Center  128 is at   0.243807 -0.853046  1.753964
      ESP Fit Center  129 is at   0.038962 -1.207847  1.753964
      ESP Fit Center  130 is at   0.243807 -1.562649  1.753964
      ESP Fit Center  131 is at   0.448652 -0.404212  1.634462
      ESP Fit Center  132 is at   0.046834 -0.511879  1.634462
      ESP Fit Center  133 is at  -0.247317 -0.806030  1.634462
      ESP Fit Center  134 is at  -0.354984 -1.207847  1.634462
      ESP Fit Center  135 is at  -0.247317 -1.609665  1.634462
      ESP Fit Center  136 is at   0.046834 -1.903816  1.634462
      ESP Fit Center  137 is at   0.448652 -2.011483  1.634462
      ESP Fit Center  138 is at   0.556301 -0.046127  1.440402
      ESP Fit Center  139 is at  -0.698181 -1.422227  1.440402
      ESP Fit Center  140 is at  -0.543295 -1.822034  1.440402
      ESP Fit Center  141 is at  -0.254441 -2.138892  1.440402
      ESP Fit Center  142 is at   0.129370 -2.330007  1.440402
      ESP Fit Center  143 is at   0.556301 -2.369568  1.440402
      ESP Fit Center  144 is at  -0.976123 -1.626199  1.179240
      ESP Fit Center  145 is at  -0.800546 -2.010658  1.179240
      ESP Fit Center  146 is at  -0.523767 -2.330078  1.179240
      ESP Fit Center  147 is at  -0.168208 -2.558582  1.179240
      ESP Fit Center  148 is at   0.237325 -2.677657  1.179240
      ESP Fit Center  149 is at   0.659978 -2.677657  1.179240
      ESP Fit Center  150 is at  -1.097431 -2.019294  0.861013
      ESP Fit Center  151 is at   0.659119 -2.941203  0.861013
      ESP Fit Center  152 is at   1.357433 -2.921991 -1.109320
      ESP Fit Center  153 is at   1.440542 -2.644848 -1.472382
      ESP Fit Center  154 is at   1.065511 -2.558582 -1.790609
      ESP Fit Center  155 is at   1.421070 -2.330078 -1.790609
      ESP Fit Center  156 is at   1.615349 -1.207847 -2.051771
      ESP Fit Center  157 is at   1.536565 -0.786388 -2.051771
      ESP Fit Center  158 is at   1.310851 -0.421848 -2.051771
      ESP Fit Center  159 is at  -0.698181 -1.422227 -2.051771
      ESP Fit Center  160 is at  -0.543295 -1.822034 -2.051771
      ESP Fit Center  161 is at   0.556301 -2.369568 -2.051771
      ESP Fit Center  162 is at   0.968693 -2.252232 -2.051771
      ESP Fit Center  163 is at   1.310851 -1.993846 -2.051771
      ESP Fit Center  164 is at   1.536565 -1.629307 -2.051771
      ESP Fit Center  165 is at   1.252287 -1.207847 -2.245832
      ESP Fit Center  166 is at   1.144620 -0.806030 -2.245832
      ESP Fit Center  167 is at  -0.354984 -1.207847 -2.245832
      ESP Fit Center  168 is at  -0.247317 -1.609665 -2.245832
      ESP Fit Center  169 is at   0.046834 -1.903816 -2.245832
      ESP Fit Center  170 is at   0.448652 -2.011483 -2.245832
      ESP Fit Center  171 is at   0.850469 -1.903816 -2.245832
      ESP Fit Center  172 is at   1.144620 -1.609665 -2.245832
      ESP Fit Center  173 is at   0.858341 -1.207847 -2.365334
      ESP Fit Center  174 is at   0.653496 -0.853046 -2.365334
      ESP Fit Center  175 is at   0.038962 -1.207847 -2.365334
      ESP Fit Center  176 is at   0.243807 -1.562649 -2.365334
      ESP Fit Center  177 is at   0.653496 -1.562649 -2.365334
      ESP Fit Center  178 is at   0.448652 -1.207847 -2.405685
      ESP Fit Center  179 is at  -0.213321 -0.000672  1.572482
      ESP Fit Center  180 is at   0.196369 -0.000672  1.532131
      ESP Fit Center  181 is at   0.590314 -0.000672  1.412629
      ESP Fit Center  182 is at   1.532765 -0.000672 -1.694216
      ESP Fit Center  183 is at   1.271604 -0.000672 -2.012443
      ESP Fit Center  184 is at   0.953377 -0.000672 -2.273605
      ESP Fit Center  185 is at   0.874592  0.420787 -2.273605
      ESP Fit Center  186 is at  -0.532603  1.121487 -2.273605
      ESP Fit Center  187 is at  -0.532603 -1.122832 -2.273605
      ESP Fit Center  188 is at   0.874592 -0.422132 -2.273605
      ESP Fit Center  189 is at   0.590314 -0.000672 -2.467665
      ESP Fit Center  190 is at   0.482648  0.401145 -2.467665
      ESP Fit Center  191 is at   0.188497  0.695296 -2.467665
      ESP Fit Center  192 is at  -0.213321  0.802963 -2.467665
      ESP Fit Center  193 is at  -0.213321 -0.804308 -2.467665
      ESP Fit Center  194 is at   0.188497 -0.696641 -2.467665
      ESP Fit Center  195 is at   0.482648 -0.402490 -2.467665
      ESP Fit Center  196 is at   0.196369 -0.000672 -2.587168
      ESP Fit Center  197 is at  -0.008476  0.354129 -2.587168
      ESP Fit Center  198 is at  -0.418166  0.354129 -2.587168
      ESP Fit Center  199 is at  -0.418166 -0.355474 -2.587168
      ESP Fit Center  200 is at  -0.008476 -0.355474 -2.587168
      ESP Fit Center  201 is at  -0.213321 -0.000672 -2.627518
      ESP Fit Center  202 is at   0.448313  1.207816  1.793747
      ESP Fit Center  203 is at   0.243469  1.562618  1.753396
      ESP Fit Center  204 is at   0.038624  1.207816  1.753396
      ESP Fit Center  205 is at   0.243469  0.853014  1.753396
      ESP Fit Center  206 is at   0.448313  2.011451  1.633894
      ESP Fit Center  207 is at   0.046496  1.903784  1.633894
      ESP Fit Center  208 is at  -0.247655  1.609633  1.633894
      ESP Fit Center  209 is at  -0.355322  1.207816  1.633894
      ESP Fit Center  210 is at  -0.247655  0.805998  1.633894
      ESP Fit Center  211 is at   0.046496  0.511847  1.633894
      ESP Fit Center  212 is at   0.448313  0.404181  1.633894
      ESP Fit Center  213 is at   0.555963  2.369536  1.439834
      ESP Fit Center  214 is at   0.129032  2.329975  1.439834
      ESP Fit Center  215 is at  -0.254779  2.138861  1.439834
      ESP Fit Center  216 is at  -0.543633  1.822003  1.439834
      ESP Fit Center  217 is at  -0.698519  1.422196  1.439834
      ESP Fit Center  218 is at   0.555963  0.046095  1.439834
      ESP Fit Center  219 is at   0.659640  2.677626  1.178672
      ESP Fit Center  220 is at   0.236987  2.677626  1.178672
      ESP Fit Center  221 is at  -0.168546  2.558550  1.178672
      ESP Fit Center  222 is at  -0.524105  2.330047  1.178672
      ESP Fit Center  223 is at  -0.800884  2.010626  1.178672
      ESP Fit Center  224 is at  -0.976461  1.626167  1.178672
      ESP Fit Center  225 is at   0.658781  2.941171  0.860445
      ESP Fit Center  226 is at  -1.097769  2.019263  0.860445
      ESP Fit Center  227 is at   1.357095  2.921959 -1.109888
      ESP Fit Center  228 is at   1.440203  2.644817 -1.472950
      ESP Fit Center  229 is at   1.420732  2.330047 -1.791177
      ESP Fit Center  230 is at   1.065173  2.558550 -1.791177
      ESP Fit Center  231 is at   1.615011  1.207816 -2.052339
      ESP Fit Center  232 is at   1.536226  1.629276 -2.052339
      ESP Fit Center  233 is at   1.310513  1.993815 -2.052339
      ESP Fit Center  234 is at   0.968355  2.252201 -2.052339
      ESP Fit Center  235 is at   0.555963  2.369536 -2.052339
      ESP Fit Center  236 is at  -0.543633  1.822003 -2.052339
      ESP Fit Center  237 is at  -0.698519  1.422196 -2.052339
      ESP Fit Center  238 is at   1.310513  0.421817 -2.052339
      ESP Fit Center  239 is at   1.536226  0.786356 -2.052339
      ESP Fit Center  240 is at   1.251949  1.207816 -2.246400
      ESP Fit Center  241 is at   1.144282  1.609633 -2.246400
      ESP Fit Center  242 is at   0.850131  1.903784 -2.246400
      ESP Fit Center  243 is at   0.448313  2.011451 -2.246400
      ESP Fit Center  244 is at   0.046496  1.903784 -2.246400
      ESP Fit Center  245 is at  -0.247655  1.609633 -2.246400
      ESP Fit Center  246 is at  -0.355322  1.207816 -2.246400
      ESP Fit Center  247 is at   1.144282  0.805998 -2.246400
      ESP Fit Center  248 is at   0.858003  1.207816 -2.365902
      ESP Fit Center  249 is at   0.653158  1.562618 -2.365902
      ESP Fit Center  250 is at   0.243469  1.562618 -2.365902
      ESP Fit Center  251 is at   0.038624  1.207816 -2.365902
      ESP Fit Center  252 is at   0.653158  0.853014 -2.365902
      ESP Fit Center  253 is at   0.448313  1.207816 -2.406253
      ESP Fit Center  254 is at   1.771102  1.207751  2.236190
      ESP Fit Center  255 is at   2.180792  1.207751  2.195839
      ESP Fit Center  256 is at   1.975947  1.562552  2.195839
      ESP Fit Center  257 is at   1.566258  1.562552  2.195839
      ESP Fit Center  258 is at   1.361413  1.207751  2.195839
      ESP Fit Center  259 is at   1.566258  0.852949  2.195839
      ESP Fit Center  260 is at   2.574738  1.207751  2.076337
      ESP Fit Center  261 is at   2.467071  1.609568  2.076337
      ESP Fit Center  262 is at   2.172920  1.903719  2.076337
      ESP Fit Center  263 is at   1.771102  2.011386  2.076337
      ESP Fit Center  264 is at   1.369285  1.903719  2.076337
      ESP Fit Center  265 is at   1.075134  1.609568  2.076337
      ESP Fit Center  266 is at   0.967467  1.207751  2.076337
      ESP Fit Center  267 is at   1.075134  0.805933  2.076337
      ESP Fit Center  268 is at   2.859015  1.629210  1.882276
      ESP Fit Center  269 is at   1.451820  2.329910  1.882276
      ESP Fit Center  270 is at   1.068010  2.138795  1.882276
      ESP Fit Center  271 is at   0.779156  1.821938  1.882276
      ESP Fit Center  272 is at   0.624270  1.422131  1.882276
      ESP Fit Center  273 is at   0.624270  0.993371  1.882276
      ESP Fit Center  274 is at   0.779156  0.593564  1.882276
      ESP Fit Center  275 is at   3.195877  1.626102  1.621114
      ESP Fit Center  276 is at   1.154243  2.558485  1.621114
      ESP Fit Center  277 is at   0.798684  2.329982  1.621114
      ESP Fit Center  278 is at   0.779212  2.644751  1.302887
      ESP Fit Center  279 is at   3.788590  1.622355 -0.273500
      ESP Fit Center  280 is at   3.665890  1.624825 -0.667445
      ESP Fit Center  281 is at   3.517189  1.207751 -1.030508
      ESP Fit Center  282 is at   3.466450  1.625616 -1.030508
      ESP Fit Center  283 is at   3.317185  2.019197 -1.030508
      ESP Fit Center  284 is at   1.560635  2.941106 -1.030508
      ESP Fit Center  285 is at   3.256027  1.207751 -1.348734
      ESP Fit Center  286 is at   3.195877  1.626102 -1.348734
      ESP Fit Center  287 is at   3.020300  2.010561 -1.348734
      ESP Fit Center  288 is at   2.743521  2.329982 -1.348734
      ESP Fit Center  289 is at   2.387962  2.558485 -1.348734
      ESP Fit Center  290 is at   1.982429  2.677561 -1.348734
      ESP Fit Center  291 is at   1.559776  2.677561 -1.348734
      ESP Fit Center  292 is at   2.937800  1.207751 -1.609896
      ESP Fit Center  293 is at   2.859015  1.629210 -1.609896
      ESP Fit Center  294 is at   2.633302  1.993750 -1.609896
      ESP Fit Center  295 is at   2.291144  2.252135 -1.609896
      ESP Fit Center  296 is at   1.878752  2.369471 -1.609896
      ESP Fit Center  297 is at   2.859015  0.786291 -1.609896
      ESP Fit Center  298 is at   2.574738  1.207751 -1.803957
      ESP Fit Center  299 is at   2.467071  1.609568 -1.803957
      ESP Fit Center  300 is at   2.172920  1.903719 -1.803957
      ESP Fit Center  301 is at   1.771102  2.011386 -1.803957
      ESP Fit Center  302 is at   1.771102  0.404115 -1.803957
      ESP Fit Center  303 is at   2.172920  0.511782 -1.803957
      ESP Fit Center  304 is at   2.467071  0.805933 -1.803957
      ESP Fit Center  305 is at   2.180792  1.207751 -1.923459
      ESP Fit Center  306 is at   1.975947  1.562552 -1.923459
      ESP Fit Center  307 is at   1.975947  0.852949 -1.923459
      ESP Fit Center  308 is at   1.771102  1.207751 -1.963810
      ESP Fit Center  309 is at  -1.819712  1.922863 -0.752607
      ESP Fit Center  310 is at  -1.819712 -1.924306 -0.752607
      ESP Fit Center  311 is at  -1.819712  1.922863 -1.162359
      ESP Fit Center  312 is at  -2.225853  1.810098 -1.162359
      ESP Fit Center  313 is at  -2.225853 -1.811541 -1.162359
      ESP Fit Center  314 is at  -1.819712 -1.924306 -1.162359
      ESP Fit Center  315 is at  -1.504356  1.863349 -1.563156
      ESP Fit Center  316 is at  -1.919151  1.816613 -1.563156
      ESP Fit Center  317 is at  -2.313146  1.678748 -1.563156
      ESP Fit Center  318 is at  -2.666585  1.456668 -1.563156
      ESP Fit Center  319 is at  -2.666585 -1.458111 -1.563156
      ESP Fit Center  320 is at  -2.313146 -1.680191 -1.563156
      ESP Fit Center  321 is at  -1.919151 -1.818056 -1.563156
      ESP Fit Center  322 is at  -1.504356 -1.864792 -1.563156
      ESP Fit Center  323 is at  -0.979828  1.613611 -1.937483
      ESP Fit Center  324 is at  -1.397775  1.693339 -1.937483
      ESP Fit Center  325 is at  -1.822419  1.666623 -1.937483
      ESP Fit Center  326 is at  -2.227078  1.535141 -1.937483
      ESP Fit Center  327 is at  -2.586326  1.307155 -1.937483
      ESP Fit Center  328 is at  -2.877590  0.996991 -1.937483
      ESP Fit Center  329 is at  -3.082568  0.624137 -1.937483
      ESP Fit Center  330 is at  -3.082568 -0.625580 -1.937483
      ESP Fit Center  331 is at  -2.877590 -0.998434 -1.937483
      ESP Fit Center  332 is at  -2.586326 -1.308598 -1.937483
      ESP Fit Center  333 is at  -2.227078 -1.536584 -1.937483
      ESP Fit Center  334 is at  -1.822419 -1.668065 -1.937483
      ESP Fit Center  335 is at  -1.397775 -1.694782 -1.937483
      ESP Fit Center  336 is at  -0.979828 -1.615054 -1.937483
      ESP Fit Center  337 is at  -0.899278  1.324216 -2.268979
      ESP Fit Center  338 is at  -1.297066  1.441017 -2.268979
      ESP Fit Center  339 is at  -1.711647  1.441017 -2.268979
      ESP Fit Center  340 is at  -2.109435  1.324216 -2.268979
      ESP Fit Center  341 is at  -2.458203  1.100076 -2.268979
      ESP Fit Center  342 is at  -2.729696  0.786756 -2.268979
      ESP Fit Center  343 is at  -2.901919  0.409640 -2.268979
      ESP Fit Center  344 is at  -2.960920 -0.000721 -2.268979
      ESP Fit Center  345 is at  -2.901919 -0.411083 -2.268979
      ESP Fit Center  346 is at  -2.729696 -0.788199 -2.268979
      ESP Fit Center  347 is at  -2.458203 -1.101519 -2.268979
      ESP Fit Center  348 is at  -2.109435 -1.325659 -2.268979
      ESP Fit Center  349 is at  -1.711647 -1.442460 -2.268979
      ESP Fit Center  350 is at  -1.297066 -1.442460 -2.268979
      ESP Fit Center  351 is at  -0.899278 -1.325659 -2.268979
      ESP Fit Center  352 is at  -0.652974  0.775416 -2.543156
      ESP Fit Center  353 is at  -0.990839  1.030560 -2.543156
      ESP Fit Center  354 is at  -1.398058  1.146423 -2.543156
      ESP Fit Center  355 is at  -1.819632  1.107358 -2.543156
      ESP Fit Center  356 is at  -2.198627  0.918642 -2.543156
      ESP Fit Center  357 is at  -2.483857  0.605759 -2.543156
      ESP Fit Center  358 is at  -2.636799  0.210969 -2.543156
      ESP Fit Center  359 is at  -2.636799 -0.212412 -2.543156
      ESP Fit Center  360 is at  -2.483857 -0.607202 -2.543156
      ESP Fit Center  361 is at  -2.198627 -0.920084 -2.543156
      ESP Fit Center  362 is at  -1.819632 -1.108801 -2.543156
      ESP Fit Center  363 is at  -1.398058 -1.147866 -2.543156
      ESP Fit Center  364 is at  -0.990839 -1.032002 -2.543156
      ESP Fit Center  365 is at  -0.652974 -0.776859 -2.543156
      ESP Fit Center  366 is at  -0.707152 -0.000721 -2.748032
      ESP Fit Center  367 is at  -0.813957  0.397880 -2.748032
      ESP Fit Center  368 is at  -1.105754  0.689677 -2.748032
      ESP Fit Center  369 is at  -1.504356  0.796482 -2.748032
      ESP Fit Center  370 is at  -1.902958  0.689677 -2.748032
      ESP Fit Center  371 is at  -2.194755  0.397880 -2.748032
      ESP Fit Center  372 is at  -2.301560 -0.000721 -2.748032
      ESP Fit Center  373 is at  -2.194755 -0.399323 -2.748032
      ESP Fit Center  374 is at  -1.902958 -0.691120 -2.748032
      ESP Fit Center  375 is at  -1.504356 -0.797925 -2.748032
      ESP Fit Center  376 is at  -1.105754 -0.691120 -2.748032
      ESP Fit Center  377 is at  -0.813957 -0.399323 -2.748032
      ESP Fit Center  378 is at  -1.096849 -0.000721 -2.874652
      ESP Fit Center  379 is at  -1.300603  0.352190 -2.874652
      ESP Fit Center  380 is at  -1.708110  0.352190 -2.874652
      ESP Fit Center  381 is at  -1.911863 -0.000721 -2.874652
      ESP Fit Center  382 is at  -1.708110 -0.353633 -2.874652
      ESP Fit Center  383 is at  -1.300603 -0.353633 -2.874652
      ESP Fit Center  384 is at  -1.504356 -0.000721 -2.917483
      ESP Fit Center  385 is at  -4.138451  0.417841  1.246101
      ESP Fit Center  386 is at  -4.189190 -0.000025  1.246101
      ESP Fit Center  387 is at  -4.138451 -0.417891  1.246101
      ESP Fit Center  388 is at  -2.338066  1.937277  0.883038
      ESP Fit Center  389 is at  -2.756984  1.914564  0.883038
      ESP Fit Center  390 is at  -3.161226  1.802326  0.883038
      ESP Fit Center  391 is at  -3.531889  1.605813  0.883038
      ESP Fit Center  392 is at  -3.851641  1.334213  0.883038
      ESP Fit Center  393 is at  -4.105532  1.000225  0.883038
      ESP Fit Center  394 is at  -4.105532 -1.000275  0.883038
      ESP Fit Center  395 is at  -3.851641 -1.334263  0.883038
      ESP Fit Center  396 is at  -3.531889 -1.605863  0.883038
      ESP Fit Center  397 is at  -3.161226 -1.802376  0.883038
      ESP Fit Center  398 is at  -2.756984 -1.914614  0.883038
      ESP Fit Center  399 is at  -2.338066 -1.937327  0.883038
      ESP Fit Center  400 is at  -1.727776  1.931415  0.489093
      ESP Fit Center  401 is at  -2.131215  2.035873  0.489093
      ESP Fit Center  402 is at  -2.547423  2.056981  0.489093
      ESP Fit Center  403 is at  -2.959360  1.993874  0.489093
      ESP Fit Center  404 is at  -3.350161  1.849137  0.489093
      ESP Fit Center  405 is at  -3.703827  1.628696  0.489093
      ESP Fit Center  406 is at  -4.005879  1.341574  0.489093
      ESP Fit Center  407 is at  -4.005879 -1.341624  0.489093
      ESP Fit Center  408 is at  -3.703827 -1.628746  0.489093
      ESP Fit Center  409 is at  -3.350161 -1.849187  0.489093
      ESP Fit Center  410 is at  -2.959360 -1.993924  0.489093
      ESP Fit Center  411 is at  -2.547423 -2.057031  0.489093
      ESP Fit Center  412 is at  -2.131215 -2.035923  0.489093
      ESP Fit Center  413 is at  -1.727776 -1.931465  0.489093
      ESP Fit Center  414 is at  -1.639468  1.940122  0.079403
      ESP Fit Center  415 is at  -2.033414  2.059624  0.079403
      ESP Fit Center  416 is at  -2.443103  2.099975  0.079403
      ESP Fit Center  417 is at  -2.852793  2.059624  0.079403
      ESP Fit Center  418 is at  -3.246739  1.940122  0.079403
      ESP Fit Center  419 is at  -3.609801  1.746061  0.079403
      ESP Fit Center  420 is at  -3.609801 -1.746111  0.079403
      ESP Fit Center  421 is at  -3.246739 -1.940172  0.079403
      ESP Fit Center  422 is at  -2.852793 -2.059674  0.079403
      ESP Fit Center  423 is at  -2.443103 -2.100025  0.079403
      ESP Fit Center  424 is at  -2.033414 -2.059674  0.079403
      ESP Fit Center  425 is at  -1.639468 -1.940172  0.079403
      ESP Fit Center  426 is at  -1.727776  1.931415 -0.330286
      ESP Fit Center  427 is at  -2.131215  2.035873 -0.330286
      ESP Fit Center  428 is at  -2.547423  2.056981 -0.330286
      ESP Fit Center  429 is at  -2.959360  1.993874 -0.330286
      ESP Fit Center  430 is at  -3.350161  1.849137 -0.330286
      ESP Fit Center  431 is at  -3.350161 -1.849187 -0.330286
      ESP Fit Center  432 is at  -2.959360 -1.993924 -0.330286
      ESP Fit Center  433 is at  -2.547423 -2.057031 -0.330286
      ESP Fit Center  434 is at  -2.131215 -2.035923 -0.330286
      ESP Fit Center  435 is at  -1.727776 -1.931465 -0.330286
      ESP Fit Center  436 is at  -2.338066  1.937277 -0.724232
      ESP Fit Center  437 is at  -2.756984  1.914564 -0.724232
      ESP Fit Center  438 is at  -3.161226  1.802326 -0.724232
      ESP Fit Center  439 is at  -3.161226 -1.802376 -0.724232
      ESP Fit Center  440 is at  -2.756984 -1.914614 -0.724232
      ESP Fit Center  441 is at  -2.338066 -1.937327 -0.724232
      ESP Fit Center  442 is at  -2.653571  1.733330 -1.087294
      ESP Fit Center  443 is at  -3.062274  1.632594 -1.087294
      ESP Fit Center  444 is at  -3.062274 -1.632644 -1.087294
      ESP Fit Center  445 is at  -2.653571 -1.733380 -1.087294
      ESP Fit Center  446 is at  -3.059963  1.350710 -1.405521
      ESP Fit Center  447 is at  -3.059963 -1.350760 -1.405521
      ESP Fit Center  448 is at  -2.214397  0.000740  3.238439
      ESP Fit Center  449 is at  -1.806890  0.000740  3.195608
      ESP Fit Center  450 is at  -2.010643  0.353651  3.195608
      ESP Fit Center  451 is at  -2.418150  0.353651  3.195608
      ESP Fit Center  452 is at  -2.621904  0.000740  3.195608
      ESP Fit Center  453 is at  -2.418150 -0.352172  3.195608
      ESP Fit Center  454 is at  -2.010643 -0.352172  3.195608
      ESP Fit Center  455 is at  -1.417193  0.000740  3.068988
      ESP Fit Center  456 is at  -1.523998  0.399342  3.068988
      ESP Fit Center  457 is at  -1.815795  0.691138  3.068988
      ESP Fit Center  458 is at  -2.214397  0.797944  3.068988
      ESP Fit Center  459 is at  -2.612999  0.691138  3.068988
      ESP Fit Center  460 is at  -2.904795  0.399342  3.068988
      ESP Fit Center  461 is at  -3.011600  0.000740  3.068988
      ESP Fit Center  462 is at  -2.904795 -0.397862  3.068988
      ESP Fit Center  463 is at  -2.612999 -0.689659  3.068988
      ESP Fit Center  464 is at  -2.214397 -0.796464  3.068988
      ESP Fit Center  465 is at  -1.815795 -0.689659  3.068988
      ESP Fit Center  466 is at  -1.523998 -0.397862  3.068988
      ESP Fit Center  467 is at  -1.062338  0.000740  2.864112
      ESP Fit Center  468 is at  -1.140134  0.416911  2.864112
      ESP Fit Center  469 is at  -1.363015  0.776877  2.864112
      ESP Fit Center  470 is at  -1.700880  1.032021  2.864112
      ESP Fit Center  471 is at  -2.108098  1.147884  2.864112
      ESP Fit Center  472 is at  -2.529673  1.108820  2.864112
      ESP Fit Center  473 is at  -2.908667  0.920103  2.864112
      ESP Fit Center  474 is at  -3.193897  0.607221  2.864112
      ESP Fit Center  475 is at  -3.346840  0.212430  2.864112
      ESP Fit Center  476 is at  -3.346840 -0.210951  2.864112
      ESP Fit Center  477 is at  -3.193897 -0.605741  2.864112
      ESP Fit Center  478 is at  -2.908667 -0.918623  2.864112
      ESP Fit Center  479 is at  -2.529673 -1.107340  2.864112
      ESP Fit Center  480 is at  -2.108098 -1.146405  2.864112
      ESP Fit Center  481 is at  -1.700880 -1.030541  2.864112
      ESP Fit Center  482 is at  -1.363015 -0.775397  2.864112
      ESP Fit Center  483 is at  -1.140134 -0.415432  2.864112
      ESP Fit Center  484 is at  -0.757833  0.000740  2.589935
      ESP Fit Center  485 is at  -0.816834  0.411101  2.589935
      ESP Fit Center  486 is at  -0.989057  0.788218  2.589935
      ESP Fit Center  487 is at  -1.260550  1.101537  2.589935
      ESP Fit Center  488 is at  -1.609318  1.325677  2.589935
      ESP Fit Center  489 is at  -2.007106  1.442478  2.589935
      ESP Fit Center  490 is at  -2.421687  1.442478  2.589935
      ESP Fit Center  491 is at  -2.819475  1.325677  2.589935
      ESP Fit Center  492 is at  -3.168243  1.101537  2.589935
      ESP Fit Center  493 is at  -3.439736  0.788218  2.589935
      ESP Fit Center  494 is at  -3.611959  0.411101  2.589935
      ESP Fit Center  495 is at  -3.670961  0.000740  2.589935
      ESP Fit Center  496 is at  -3.611959 -0.409622  2.589935
      ESP Fit Center  497 is at  -3.439736 -0.786738  2.589935
      ESP Fit Center  498 is at  -3.168243 -1.100058  2.589935
      ESP Fit Center  499 is at  -2.819475 -1.324197  2.589935
      ESP Fit Center  500 is at  -2.421687 -1.440998  2.589935
      ESP Fit Center  501 is at  -2.007106 -1.440998  2.589935
      ESP Fit Center  502 is at  -1.609318 -1.324197  2.589935
      ESP Fit Center  503 is at  -1.260550 -1.100058  2.589935
      ESP Fit Center  504 is at  -0.989057 -0.786738  2.589935
      ESP Fit Center  505 is at  -0.816834 -0.409622  2.589935
      ESP Fit Center  506 is at  -0.516987  0.000740  2.258439
      ESP Fit Center  507 is at  -0.570314  0.422868  2.258439
      ESP Fit Center  508 is at  -0.726945  0.818473  2.258439
      ESP Fit Center  509 is at  -0.977038  1.162697  2.258439
      ESP Fit Center  510 is at  -1.304879  1.433910  2.258439
      ESP Fit Center  511 is at  -1.689868  1.615072  2.258439
      ESP Fit Center  512 is at  -2.107815  1.694800  2.258439
      ESP Fit Center  513 is at  -2.532460  1.668084  2.258439
      ESP Fit Center  514 is at  -2.937119  1.536602  2.258439
      ESP Fit Center  515 is at  -3.296366  1.308616  2.258439
      ESP Fit Center  516 is at  -3.587630  0.998452  2.258439
      ESP Fit Center  517 is at  -3.792608  0.625598  2.258439
      ESP Fit Center  518 is at  -3.898422  0.213482  2.258439
      ESP Fit Center  519 is at  -3.898422 -0.212002  2.258439
      ESP Fit Center  520 is at  -3.792608 -0.624118  2.258439
      ESP Fit Center  521 is at  -3.587630 -0.996973  2.258439
      ESP Fit Center  522 is at  -3.296366 -1.307137  2.258439
      ESP Fit Center  523 is at  -2.937119 -1.535123  2.258439
      ESP Fit Center  524 is at  -2.532460 -1.666604  2.258439
      ESP Fit Center  525 is at  -2.107815 -1.693321  2.258439
      ESP Fit Center  526 is at  -1.689868 -1.613593  2.258439
      ESP Fit Center  527 is at  -1.304879 -1.432431  2.258439
      ESP Fit Center  528 is at  -0.977038 -1.161217  2.258439
      ESP Fit Center  529 is at  -0.726945 -0.816994  2.258439
      ESP Fit Center  530 is at  -0.570314 -0.421389  2.258439
      ESP Fit Center  531 is at  -0.350326  0.000740  1.884112
      ESP Fit Center  532 is at  -0.397062  0.415534  1.884112
      ESP Fit Center  533 is at  -0.534927  0.809530  1.884112
      ESP Fit Center  534 is at  -0.757007  1.162969  1.884112
      ESP Fit Center  535 is at  -1.052168  1.458129  1.884112
      ESP Fit Center  536 is at  -1.405607  1.680209  1.884112
      ESP Fit Center  537 is at  -1.799602  1.818074  1.884112
      ESP Fit Center  538 is at  -2.214397  1.864810  1.884112
      ESP Fit Center  539 is at  -2.629191  1.818074  1.884112
      ESP Fit Center  540 is at  -3.023187  1.680209  1.884112
      ESP Fit Center  541 is at  -3.376626  1.458129  1.884112
      ESP Fit Center  542 is at  -3.671786  1.162969  1.884112
      ESP Fit Center  543 is at  -3.893866  0.809530  1.884112
      ESP Fit Center  544 is at  -4.031731  0.415534  1.884112
      ESP Fit Center  545 is at  -4.078467  0.000740  1.884112
      ESP Fit Center  546 is at  -4.031731 -0.414055  1.884112
      ESP Fit Center  547 is at  -3.893866 -0.808050  1.884112
      ESP Fit Center  548 is at  -3.671786 -1.161489  1.884112
      ESP Fit Center  549 is at  -3.376626 -1.456649  1.884112
      ESP Fit Center  550 is at  -3.023187 -1.678730  1.884112
      ESP Fit Center  551 is at  -2.629191 -1.816595  1.884112
      ESP Fit Center  552 is at  -2.214397 -1.863331  1.884112
      ESP Fit Center  553 is at  -1.799602 -1.816595  1.884112
      ESP Fit Center  554 is at  -1.405607 -1.678730  1.884112
      ESP Fit Center  555 is at  -1.052168 -1.456649  1.884112
      ESP Fit Center  556 is at  -0.757007 -1.161489  1.884112
      ESP Fit Center  557 is at  -0.534927 -0.808050  1.884112
      ESP Fit Center  558 is at  -0.397062 -0.414055  1.884112
      ESP Fit Center  559 is at  -0.662602  1.180383  1.483315
      ESP Fit Center  560 is at  -0.952471  1.486394  1.483315
      ESP Fit Center  561 is at  -1.301345  1.722937  1.483315
      ESP Fit Center  562 is at  -1.692914  1.878952  1.483315
      ESP Fit Center  563 is at  -2.108866  1.947144  1.483315
      ESP Fit Center  564 is at  -2.529752  1.924324  1.483315
      ESP Fit Center  565 is at  -2.935893  1.811560  1.483315
      ESP Fit Center  566 is at  -3.308298  1.614123  1.483315
      ESP Fit Center  567 is at  -3.629553  1.341247  1.483315
      ESP Fit Center  568 is at  -3.884637  1.005690  1.483315
      ESP Fit Center  569 is at  -4.061622  0.623142  1.483315
      ESP Fit Center  570 is at  -4.152233  0.211492  1.483315
      ESP Fit Center  571 is at  -4.152233 -0.210013  1.483315
      ESP Fit Center  572 is at  -4.061622 -0.621663  1.483315
      ESP Fit Center  573 is at  -3.884637 -1.004210  1.483315
      ESP Fit Center  574 is at  -3.629553 -1.339767  1.483315
      ESP Fit Center  575 is at  -3.308298 -1.612644  1.483315
      ESP Fit Center  576 is at  -2.935893 -1.810080  1.483315
      ESP Fit Center  577 is at  -2.529752 -1.922845  1.483315
      ESP Fit Center  578 is at  -2.108866 -1.945664  1.483315
      ESP Fit Center  579 is at  -1.692914 -1.877473  1.483315
      ESP Fit Center  580 is at  -1.301345 -1.721458  1.483315
      ESP Fit Center  581 is at  -0.952471 -1.484915  1.483315
      ESP Fit Center  582 is at  -0.662602 -1.178904  1.483315
      ESP Fit Center  583 is at  -1.301345  1.722937  1.073563
      ESP Fit Center  584 is at  -1.692914  1.878952  1.073563
      ESP Fit Center  585 is at  -2.108866  1.947144  1.073563
      ESP Fit Center  586 is at  -2.529752  1.924324  1.073563
      ESP Fit Center  587 is at  -2.935893  1.811560  1.073563
      ESP Fit Center  588 is at  -2.935893 -1.810080  1.073563
      ESP Fit Center  589 is at  -2.529752 -1.922845  1.073563
      ESP Fit Center  590 is at  -2.108866 -1.945664  1.073563
      ESP Fit Center  591 is at  -1.692914 -1.877473  1.073563
      ESP Fit Center  592 is at  -1.301345 -1.721458  1.073563
      ESP Fit Center  593 is at   3.463061  0.000284  2.381051
      ESP Fit Center  594 is at   3.897877  0.000284  2.323806
      ESP Fit Center  595 is at   3.680469  0.376846  2.323806
      ESP Fit Center  596 is at   3.245653  0.376846  2.323806
      ESP Fit Center  597 is at   3.245653 -0.376277  2.323806
      ESP Fit Center  598 is at   3.680469 -0.376277  2.323806
      ESP Fit Center  599 is at   4.303061  0.000284  2.155973
      ESP Fit Center  600 is at   4.190522  0.420284  2.155973
      ESP Fit Center  601 is at   3.883061  0.727746  2.155973
      ESP Fit Center  602 is at   3.463061  0.840284  2.155973
      ESP Fit Center  603 is at   3.463061 -0.839716  2.155973
      ESP Fit Center  604 is at   3.883061 -0.727177  2.155973
      ESP Fit Center  605 is at   4.190522 -0.419716  2.155973
      ESP Fit Center  606 is at   4.651000  0.000284  1.888990
      ESP Fit Center  607 is at   4.570781  0.429417  1.888990
      ESP Fit Center  608 is at   4.340959  0.800594  1.888990
      ESP Fit Center  609 is at   3.992571  1.063684  1.888990
      ESP Fit Center  610 is at   3.572670  1.183156  1.888990
      ESP Fit Center  611 is at   3.572670 -1.182588  1.888990
      ESP Fit Center  612 is at   3.992571 -1.063115  1.888990
      ESP Fit Center  613 is at   4.340959 -0.800025  1.888990
      ESP Fit Center  614 is at   4.570781 -0.428849  1.888990
      ESP Fit Center  615 is at   4.917984  0.000284  1.541051
      ESP Fit Center  616 is at   4.853345  0.429130  1.541051
      ESP Fit Center  617 is at   4.665174  0.819871  1.541051
      ESP Fit Center  618 is at   4.370190  1.137789  1.541051
      ESP Fit Center  619 is at   3.994604  1.354634  1.541051
      ESP Fit Center  620 is at   3.571787  1.451139  1.541051
      ESP Fit Center  621 is at   3.571787 -1.450570  1.541051
      ESP Fit Center  622 is at   3.994604 -1.354065  1.541051
      ESP Fit Center  623 is at   4.370190 -1.137220  1.541051
      ESP Fit Center  624 is at   4.665174 -0.819303  1.541051
      ESP Fit Center  625 is at   4.853345 -0.428562  1.541051
      ESP Fit Center  626 is at   5.085816  0.000284  1.135867
      ESP Fit Center  627 is at   5.030522  0.420284  1.135867
      ESP Fit Center  628 is at   4.868408  0.811662  1.135867
      ESP Fit Center  629 is at   4.610522  1.147746  1.135867
      ESP Fit Center  630 is at   4.274439  1.405632  1.135867
      ESP Fit Center  631 is at   3.883061  1.567746  1.135867
      ESP Fit Center  632 is at   3.883061 -1.567177  1.135867
      ESP Fit Center  633 is at   4.274439 -1.405063  1.135867
      ESP Fit Center  634 is at   4.610522 -1.147177  1.135867
      ESP Fit Center  635 is at   4.868408 -0.811093  1.135867
      ESP Fit Center  636 is at   5.030522 -0.419716  1.135867
      ESP Fit Center  637 is at   5.143061  0.000284  0.701051
      ESP Fit Center  638 is at   5.090281  0.418083  0.701051
      ESP Fit Center  639 is at   4.935256  0.809630  0.701051
      ESP Fit Center  640 is at   4.687728  1.150323  0.701051
      ESP Fit Center  641 is at   4.363250  1.418755  0.701051
      ESP Fit Center  642 is at   3.982209  1.598059  0.701051
      ESP Fit Center  643 is at   3.982209 -1.597491  0.701051
      ESP Fit Center  644 is at   4.363250 -1.418187  0.701051
      ESP Fit Center  645 is at   4.687728 -1.149755  0.701051
      ESP Fit Center  646 is at   4.935256 -0.809062  0.701051
      ESP Fit Center  647 is at   5.090281 -0.417515  0.701051
      ESP Fit Center  648 is at   5.085816  0.000284  0.266235
      ESP Fit Center  649 is at   5.030522  0.420284  0.266235
      ESP Fit Center  650 is at   4.868408  0.811662  0.266235
      ESP Fit Center  651 is at   4.610522  1.147746  0.266235
      ESP Fit Center  652 is at   4.274439  1.405632  0.266235
      ESP Fit Center  653 is at   3.883061  1.567746  0.266235
      ESP Fit Center  654 is at   3.883061 -1.567177  0.266235
      ESP Fit Center  655 is at   4.274439 -1.405063  0.266235
      ESP Fit Center  656 is at   4.610522 -1.147177  0.266235
      ESP Fit Center  657 is at   4.868408 -0.811093  0.266235
      ESP Fit Center  658 is at   5.030522 -0.419716  0.266235
      ESP Fit Center  659 is at   4.917984  0.000284 -0.138949
      ESP Fit Center  660 is at   4.853345  0.429130 -0.138949
      ESP Fit Center  661 is at   4.665174  0.819871 -0.138949
      ESP Fit Center  662 is at   4.370190  1.137789 -0.138949
      ESP Fit Center  663 is at   3.994604  1.354634 -0.138949
      ESP Fit Center  664 is at   3.994604 -1.354065 -0.138949
      ESP Fit Center  665 is at   4.370190 -1.137220 -0.138949
      ESP Fit Center  666 is at   4.665174 -0.819303 -0.138949
      ESP Fit Center  667 is at   4.853345 -0.428562 -0.138949
      ESP Fit Center  668 is at   4.651000  0.000284 -0.486889
      ESP Fit Center  669 is at   4.570781  0.429417 -0.486889
      ESP Fit Center  670 is at   4.340959  0.800594 -0.486889
      ESP Fit Center  671 is at   4.340959 -0.800025 -0.486889
      ESP Fit Center  672 is at   4.570781 -0.428849 -0.486889
      ESP Fit Center  673 is at   4.303061  0.000284 -0.753872
      ESP Fit Center  674 is at   4.190522  0.420284 -0.753872
      ESP Fit Center  675 is at   4.190522 -0.419716 -0.753872
      ESP Fit Center  676 is at   2.287071 -2.147458  1.989503
      ESP Fit Center  677 is at   2.721887 -2.147458  1.932258
      ESP Fit Center  678 is at   2.069663 -2.524020  1.932258
      ESP Fit Center  679 is at   2.504479 -2.524020  1.932258
      ESP Fit Center  680 is at   3.127071 -2.147458  1.764425
      ESP Fit Center  681 is at   3.014532 -1.727458  1.764425
      ESP Fit Center  682 is at   1.559609 -2.567458  1.764425
      ESP Fit Center  683 is at   1.867071 -2.874920  1.764425
      ESP Fit Center  684 is at   2.287071 -2.987458  1.764425
      ESP Fit Center  685 is at   2.707071 -2.874920  1.764425
      ESP Fit Center  686 is at   3.014532 -2.567458  1.764425
      ESP Fit Center  687 is at   3.475010 -2.147458  1.497442
      ESP Fit Center  688 is at   3.394791 -1.718325  1.497442
      ESP Fit Center  689 is at   1.277064 -2.772828  1.497442
      ESP Fit Center  690 is at   1.571177 -3.095455  1.497442
      ESP Fit Center  691 is at   1.961976 -3.290049  1.497442
      ESP Fit Center  692 is at   2.396680 -3.330330  1.497442
      ESP Fit Center  693 is at   2.816581 -3.210858  1.497442
      ESP Fit Center  694 is at   3.164969 -2.947768  1.497442
      ESP Fit Center  695 is at   3.394791 -2.576592  1.497442
      ESP Fit Center  696 is at   3.741993 -2.147458  1.149503
      ESP Fit Center  697 is at   3.677355 -1.718612  1.149503
      ESP Fit Center  698 is at   1.220537 -3.137057  1.149503
      ESP Fit Center  699 is at   1.559609 -3.407458  1.149503
      ESP Fit Center  700 is at   1.963320 -3.565903  1.149503
      ESP Fit Center  701 is at   2.395797 -3.598313  1.149503
      ESP Fit Center  702 is at   2.818614 -3.501808  1.149503
      ESP Fit Center  703 is at   3.194200 -3.284963  1.149503
      ESP Fit Center  704 is at   3.489184 -2.967046  1.149503
      ESP Fit Center  705 is at   3.677355 -2.576304  1.149503
[...]
 4489 Fit      -0.012645
 4490 Fit      -0.012670
 4491 Fit      -0.012670
 4492 Fit      -0.012637
 4493 Fit      -0.012573
 4494 Fit      -0.012495
 4495 Fit      -0.012422
 4496 Fit      -0.012377
 4497 Fit      -0.012376
 4498 Fit      -0.012417
 4499 Fit      -0.012488
 4500 Fit      -0.012564
 4501 Fit      -0.012625
 4502 Fit      -0.012657
 4503 Fit      -0.012656
 4504 Fit      -0.012631
 4505 Fit      -0.012598
 4506 Fit      -0.012588
 4507 Fit      -0.012659
 4508 Fit      -0.012924
 4509 Fit      -0.013594
 4510 Fit      -0.008109
 4511 Fit      -0.008098
 4512 Fit      -0.008203
 4513 Fit      -0.008300
 4514 Fit      -0.008346
 4515 Fit      -0.008328
 4516 Fit      -0.008241
 4517 Fit      -0.008086
 4518 Fit      -0.007877
 4519 Fit      -0.007638
 4520 Fit      -0.007413
 4521 Fit      -0.007251
 4522 Fit      -0.007190
 4523 Fit      -0.007247
 4524 Fit      -0.007406
 4525 Fit      -0.007628
 4526 Fit      -0.007864
 4527 Fit      -0.008072
 4528 Fit      -0.008225
 4529 Fit      -0.008311
 4530 Fit      -0.008329
 4531 Fit      -0.008282
 4532 Fit      -0.008185
 4533 Fit      -0.008081
 4534 Fit      -0.008093
 4535 Fit       0.001515
 4536 Fit       0.003787
 4537 Fit       0.003372
 4538 Fit       0.002047
 4539 Fit       0.002048
 4540 Fit       0.003373
 4541 Fit       0.005617
 4542 Fit       0.005435
 4543 Fit       0.004864
 4544 Fit       0.003803
 4545 Fit       0.003804
 4546 Fit       0.004864
 4547 Fit       0.005435
 4548 Fit       0.007055
 4549 Fit       0.006962
 4550 Fit       0.006679
 4551 Fit       0.006184
 4552 Fit       0.005392
 4553 Fit       0.005393
 4554 Fit       0.006185
 4555 Fit       0.006680
 4556 Fit       0.006962
 4557 Fit       0.008136
 4558 Fit       0.008088
 4559 Fit       0.007948
 4560 Fit       0.007727
 4561 Fit       0.007426
 4562 Fit       0.006985
 4563 Fit       0.006988
 4564 Fit       0.007427
 4565 Fit       0.007728
 4566 Fit       0.007948
 4567 Fit       0.008088
 4568 Fit       0.008882
 4569 Fit       0.008861
 4570 Fit       0.008805
 4571 Fit       0.008741
 4572 Fit       0.008708
 4573 Fit       0.008748
 4574 Fit       0.008866
 4575 Fit       0.008869
 4576 Fit       0.008750
 4577 Fit       0.008710
 4578 Fit       0.008742
 4579 Fit       0.008805
 4580 Fit       0.008861
 4581 Fit       0.009308
 4582 Fit       0.009301
 4583 Fit       0.009293
 4584 Fit       0.009318
 4585 Fit       0.009443
 4586 Fit       0.009762
 4587 Fit       0.010411
 4588 Fit       0.010414
 4589 Fit       0.009764
 4590 Fit       0.009444
 4591 Fit       0.009319
 4592 Fit       0.009293
 4593 Fit       0.009301
 4594 Fit       0.009422
 4595 Fit       0.009424
 4596 Fit       0.009444
 4597 Fit       0.009520
 4598 Fit       0.009725
 4599 Fit       0.010182
 4600 Fit       0.011093
 4601 Fit       0.011096
 4602 Fit       0.010183
 4603 Fit       0.009726
 4604 Fit       0.009520
 4605 Fit       0.009444
 4606 Fit       0.009424
 4607 Fit       0.009227
 4608 Fit       0.009234
 4609 Fit       0.009267
 4610 Fit       0.009368
 4611 Fit       0.009614
 4612 Fit       0.010137
 4613 Fit       0.011172
 4614 Fit       0.011173
 4615 Fit       0.010137
 4616 Fit       0.009614
 4617 Fit       0.009368
 4618 Fit       0.009267
 4619 Fit       0.009234
 4620 Fit       0.008722
 4621 Fit       0.008730
 4622 Fit       0.008769
 4623 Fit       0.008884
 4624 Fit       0.009164
 4625 Fit       0.009762
 4626 Fit       0.009762
 4627 Fit       0.009163
 4628 Fit       0.008884
 4629 Fit       0.008768
 4630 Fit       0.008730
 4631 Fit       0.007899
 4632 Fit       0.007904
 4633 Fit       0.007933
 4634 Fit       0.008036
 4635 Fit       0.008308
 4636 Fit       0.008912
 4637 Fit       0.008910
 4638 Fit       0.008307
 4639 Fit       0.008035
 4640 Fit       0.007932
 4641 Fit       0.007904
 4642 Fit       0.006744
 4643 Fit       0.006737
 4644 Fit       0.006729
 4645 Fit       0.006762
 4646 Fit       0.006912
 4647 Fit       0.006910
 4648 Fit       0.006761
 4649 Fit       0.006728
 4650 Fit       0.006737
 4651 Fit       0.005230
 4652 Fit       0.005195
 4653 Fit       0.005101
 4654 Fit       0.005099
 4655 Fit       0.005195
 4656 Fit       0.003312
 4657 Fit       0.000890
 4658 Fit       0.002166
 4659 Fit       0.002481
 4660 Fit       0.002074
 4661 Fit       0.003454
 4662 Fit       0.004298
 4663 Fit       0.004708
 4664 Fit       0.004739
 4665 Fit       0.006690
 4666 Fit       0.002901
 4667 Fit       0.004292
 4668 Fit       0.005270
 4669 Fit       0.005930
 4670 Fit       0.006342
 4671 Fit       0.006573
 4672 Fit       0.006681
 4673 Fit       0.008689
 4674 Fit       0.003478
 4675 Fit       0.004851
 4676 Fit       0.005864
 4677 Fit       0.006614
 4678 Fit       0.007156
 4679 Fit       0.007533
 4680 Fit       0.007796
 4681 Fit       0.008012
 4682 Fit       0.008273
 4683 Fit       0.010183
 4684 Fit       0.004591
 4685 Fit       0.005693
 4686 Fit       0.006527
 4687 Fit       0.007189
 4688 Fit       0.007714
 4689 Fit       0.008117
 4690 Fit       0.008417
 4691 Fit       0.008638
 4692 Fit       0.008828
 4693 Fit       0.009061
 4694 Fit       0.009453
 4695 Fit       0.011027
 4696 Fit       0.007239
 4697 Fit       0.007658
 4698 Fit       0.008055
 4699 Fit       0.008417
 4700 Fit       0.008726
 4701 Fit       0.008970
 4702 Fit       0.009151
 4703 Fit       0.009291
 4704 Fit       0.009436
 4705 Fit       0.009667
 4706 Fit       0.010119
 4707 Fit       0.011139
 4708 Fit       0.009078
 4709 Fit       0.008881
 4710 Fit       0.008893
 4711 Fit       0.009014
 4712 Fit       0.009173
 4713 Fit       0.009324
 4714 Fit       0.009442
 4715 Fit       0.009524
 4716 Fit       0.009587
 4717 Fit       0.009673
 4718 Fit       0.009857
 4719 Fit       0.010270
 4720 Fit       0.010537
 4721 Fit       0.010419
 4722 Fit       0.009799
 4723 Fit       0.009543
 4724 Fit       0.009477
 4725 Fit       0.009494
 4726 Fit       0.009531
 4727 Fit       0.009554
 4728 Fit       0.009552
 4729 Fit       0.009536
 4730 Fit       0.009539
 4731 Fit       0.009625
 4732 Fit       0.009898
 4733 Fit       0.009336
 4734 Fit       0.010563
 4735 Fit       0.009920
 4736 Fit       0.009623
 4737 Fit       0.009493
 4738 Fit       0.009427
 4739 Fit       0.009368
 4740 Fit       0.009288
 4741 Fit       0.009184
 4742 Fit       0.009077
 4743 Fit       0.009011
 4744 Fit       0.009060
 4745 Fit       0.010232
 4746 Fit       0.009596
 4747 Fit       0.009272
 4748 Fit       0.009086
 4749 Fit       0.008940
 4750 Fit       0.008781
 4751 Fit       0.008585
 4752 Fit       0.008353
 4753 Fit       0.008104
 4754 Fit       0.007875
 4755 Fit       0.010270
 4756 Fit       0.009310
 4757 Fit       0.008795
 4758 Fit       0.008491
 4759 Fit       0.008263
 4760 Fit       0.008029
 4761 Fit       0.007744
 4762 Fit       0.007389
 4763 Fit       0.006955
 4764 Fit       0.006435
 4765 Fit       0.008239
 4766 Fit       0.007746
 4767 Fit       0.007419
 4768 Fit       0.007123
 4769 Fit       0.006771
 4770 Fit       0.006307
 4771 Fit       0.005691
 4772 Fit       0.004873
 4773 Fit       0.006204
 4774 Fit       0.005927
 4775 Fit       0.005570
 4776 Fit       0.005053
 4777 Fit       0.004304
 4778 Fit      -0.004041
 4779 Fit      -0.001565
 4780 Fit       0.000154
 4781 Fit       0.001395
 4782 Fit      -0.004499
 4783 Fit      -0.001600
 4784 Fit       0.000430
 4785 Fit       0.001930
 4786 Fit       0.003091
 4787 Fit       0.004058
 4788 Fit       0.004980
 4789 Fit       0.001406
 4790 Fit       0.002638
 4791 Fit       0.003683
 4792 Fit       0.004572
 4793 Fit       0.005350
 4794 Fit       0.006086
 4795 Fit       0.006891
 4796 Fit       0.007941
 4797 Fit       0.004758
 4798 Fit       0.005084
 4799 Fit       0.005597
 4800 Fit       0.006153
 4801 Fit       0.006701
 4802 Fit       0.007251
 4803 Fit       0.007863
 4804 Fit       0.008658
 4805 Fit       0.009855
 4806 Fit       0.007585
 4807 Fit       0.007143
 4808 Fit       0.007179
 4809 Fit       0.007420
 4810 Fit       0.007741
 4811 Fit       0.008099
 4812 Fit       0.008508
 4813 Fit       0.009027
 4814 Fit       0.009781
 4815 Fit       0.010993
 4816 Fit       0.008847
 4817 Fit       0.008379
 4818 Fit       0.008302
 4819 Fit       0.008406
 4820 Fit       0.008591
 4821 Fit       0.008820
 4822 Fit       0.009101
 4823 Fit       0.009485
 4824 Fit       0.010067
 4825 Fit       0.011010
 4826 Fit       0.009733
 4827 Fit       0.009059
 4828 Fit       0.008822
 4829 Fit       0.008802
 4830 Fit       0.008877
 4831 Fit       0.008992
 4832 Fit       0.009133
 4833 Fit       0.009322
 4834 Fit       0.009612
 4835 Fit       0.010083
 4836 Fit       0.009696
 4837 Fit       0.009119
 4838 Fit       0.008842
 4839 Fit       0.008762
 4840 Fit       0.008777
 4841 Fit       0.008818
 4842 Fit       0.008854
 4843 Fit       0.008878
 4844 Fit       0.008904
 4845 Fit       0.008956
 4846 Fit       0.009038
 4847 Fit       0.007608
 4848 Fit       0.007962
 4849 Fit       0.008130
 4850 Fit       0.008241
 4851 Fit       0.008307
 4852 Fit       0.008312
 4853 Fit       0.008245
 4854 Fit       0.008101
 4855 Fit       0.007870
 4856 Fit       0.007511
 4857 Fit       0.005665
 4858 Fit       0.006661
 4859 Fit       0.007151
 4860 Fit       0.007379
 4861 Fit       0.007418
 4862 Fit       0.007283
 4863 Fit       0.006965
 4864 Fit       0.006424
 4865 Fit       0.004083
 4866 Fit       0.005358
 4867 Fit       0.005959
 4868 Fit       0.006139
 4869 Fit       0.005984
 4870 Fit       0.005496
 4871 Fit       0.004614
 4872 Fit       0.001871
 4873 Fit       0.003605
 4874 Fit       0.004357
 4875 Fit       0.004424
 4876 Fit       0.003900
 4877 Fit       0.001055
 4878 Fit       0.002302
 4879 Fit       0.002243
 4880 Fit       0.001387
 4881 Fit       0.000144
 4882 Fit      -0.001576
 4883 Fit      -0.004055
 4884 Fit       0.004974
 4885 Fit       0.004051
 4886 Fit       0.003083
 4887 Fit       0.001921
 4888 Fit       0.000419
 4889 Fit      -0.001614
 4890 Fit      -0.004517
 4891 Fit       0.007937
 4892 Fit       0.006887
 4893 Fit       0.006081
 4894 Fit       0.005344
 4895 Fit       0.004565
 4896 Fit       0.003675
 4897 Fit       0.002628
 4898 Fit       0.001394
 4899 Fit       0.009854
 4900 Fit       0.008656
 4901 Fit       0.007860
 4902 Fit       0.007247
 4903 Fit       0.006696
 4904 Fit       0.006147
 4905 Fit       0.005591
 4906 Fit       0.005076
 4907 Fit       0.004749
 4908 Fit       0.010993
 4909 Fit       0.009780
 4910 Fit       0.009025
 4911 Fit       0.008505
 4912 Fit       0.008096
 4913 Fit       0.007737
 4914 Fit       0.007416
 4915 Fit       0.007175
 4916 Fit       0.007138
 4917 Fit       0.007579
 4918 Fit       0.011011
 4919 Fit       0.010066
 4920 Fit       0.009484
 4921 Fit       0.009100
 4922 Fit       0.008818
 4923 Fit       0.008589
 4924 Fit       0.008404
 4925 Fit       0.008299
 4926 Fit       0.008376
 4927 Fit       0.008844
 4928 Fit       0.010084
 4929 Fit       0.009612
 4930 Fit       0.009322
 4931 Fit       0.009132
 4932 Fit       0.008991
 4933 Fit       0.008876
 4934 Fit       0.008801
 4935 Fit       0.008821
 4936 Fit       0.009058
 4937 Fit       0.009733
 4938 Fit       0.009040
 4939 Fit       0.008957
 4940 Fit       0.008905
 4941 Fit       0.008878
 4942 Fit       0.008854
 4943 Fit       0.008818
 4944 Fit       0.008777
 4945 Fit       0.008762
 4946 Fit       0.008843
 4947 Fit       0.009120
 4948 Fit       0.009700
 4949 Fit       0.007512
 4950 Fit       0.007871
 4951 Fit       0.008102
 4952 Fit       0.008246
 4953 Fit       0.008313
 4954 Fit       0.008308
 4955 Fit       0.008243
 4956 Fit       0.008132
 4957 Fit       0.007966
 4958 Fit       0.007614
 4959 Fit       0.006426
 4960 Fit       0.006967
 4961 Fit       0.007285
 4962 Fit       0.007419
 4963 Fit       0.007381
 4964 Fit       0.007154
 4965 Fit       0.006665
 4966 Fit       0.005672
 4967 Fit       0.004616
 4968 Fit       0.005499
 4969 Fit       0.005986
 4970 Fit       0.006142
 4971 Fit       0.005963
 4972 Fit       0.005362
 4973 Fit       0.004090
 4974 Fit       0.003902
 4975 Fit       0.004427
 4976 Fit       0.004361
 4977 Fit       0.003610
 4978 Fit       0.001878
 4979 Fit       0.002247
 4980 Fit       0.002306
 4981 Fit       0.001061
 4982 Fit       0.002478
 4983 Fit       0.002163
 4984 Fit       0.000886
 4985 Fit       0.004737
 4986 Fit       0.004706
 4987 Fit       0.004295
 4988 Fit       0.003450
 4989 Fit       0.002070
 4990 Fit       0.006690
 4991 Fit       0.006680
 4992 Fit       0.006571
 4993 Fit       0.006340
 4994 Fit       0.005927
 4995 Fit       0.005267
 4996 Fit       0.004288
 4997 Fit       0.002896
 4998 Fit       0.008690
 4999 Fit       0.008273
 5000 Fit       0.008011
 5001 Fit       0.007794
 5002 Fit       0.007531
 5003 Fit       0.007153
 5004 Fit       0.006611
 5005 Fit       0.005861
 5006 Fit       0.004848
 5007 Fit       0.003473
 5008 Fit       0.010184
 5009 Fit       0.009453
 5010 Fit       0.009061
 5011 Fit       0.008827
 5012 Fit       0.008637
 5013 Fit       0.008415
 5014 Fit       0.008116
 5015 Fit       0.007711
 5016 Fit       0.007186
 5017 Fit       0.006524
 5018 Fit       0.005689
 5019 Fit       0.004587
 5020 Fit       0.011028
 5021 Fit       0.010120
 5022 Fit       0.009667
 5023 Fit       0.009436
 5024 Fit       0.009290
 5025 Fit       0.009150
 5026 Fit       0.008969
 5027 Fit       0.008725
 5028 Fit       0.008415
 5029 Fit       0.008052
 5030 Fit       0.007655
 5031 Fit       0.007235
 5032 Fit       0.011140
 5033 Fit       0.010270
 5034 Fit       0.009857
 5035 Fit       0.009672
 5036 Fit       0.009586
 5037 Fit       0.009524
 5038 Fit       0.009442
 5039 Fit       0.009323
 5040 Fit       0.009172
 5041 Fit       0.009012
 5042 Fit       0.008890
 5043 Fit       0.008878
 5044 Fit       0.009073
 5045 Fit       0.010538
 5046 Fit       0.009898
 5047 Fit       0.009625
 5048 Fit       0.009539
 5049 Fit       0.009535
 5050 Fit       0.009551
 5051 Fit       0.009553
 5052 Fit       0.009530
 5053 Fit       0.009493
 5054 Fit       0.009475
 5055 Fit       0.009541
 5056 Fit       0.009796
 5057 Fit       0.010416
 5058 Fit       0.009336
 5059 Fit       0.009060
 5060 Fit       0.009012
 5061 Fit       0.009077
 5062 Fit       0.009184
 5063 Fit       0.009288
 5064 Fit       0.009368
 5065 Fit       0.009427
 5066 Fit       0.009493
 5067 Fit       0.009622
 5068 Fit       0.009919
 5069 Fit       0.010561
 5070 Fit       0.007875
 5071 Fit       0.008105
 5072 Fit       0.008353
 5073 Fit       0.008585
 5074 Fit       0.008781
 5075 Fit       0.008941
 5076 Fit       0.009086
 5077 Fit       0.009271
 5078 Fit       0.009595
 5079 Fit       0.010231
 5080 Fit       0.006435
 5081 Fit       0.006956
 5082 Fit       0.007390
 5083 Fit       0.007745
 5084 Fit       0.008030
 5085 Fit       0.008264
 5086 Fit       0.008492
 5087 Fit       0.008795
 5088 Fit       0.009310
 5089 Fit       0.010270
 5090 Fit       0.004874
 5091 Fit       0.005692
 5092 Fit       0.006308
 5093 Fit       0.006772
 5094 Fit       0.007124
 5095 Fit       0.007420
 5096 Fit       0.007747
 5097 Fit       0.008240
 5098 Fit       0.004305
 5099 Fit       0.005055
 5100 Fit       0.005572
 5101 Fit       0.005929
 5102 Fit       0.006206
 5103 Fit       0.002709
 5104 Fit       0.002978
 5105 Fit       0.003120
 5106 Fit       0.003121
 5107 Fit       0.002982
 5108 Fit       0.002716
 5109 Fit       0.006038
 5110 Fit       0.006207
 5111 Fit       0.006348
 5112 Fit       0.006428
 5113 Fit       0.006429
 5114 Fit       0.006351
 5115 Fit       0.006212
 5116 Fit       0.006045
 5117 Fit       0.008594
 5118 Fit       0.008633
 5119 Fit       0.008717
 5120 Fit       0.008799
 5121 Fit       0.008847
 5122 Fit       0.008848
 5123 Fit       0.008801
 5124 Fit       0.008721
 5125 Fit       0.008637
 5126 Fit       0.008600
 5127 Fit       0.010631
 5128 Fit       0.010466
 5129 Fit       0.010438
 5130 Fit       0.010480
 5131 Fit       0.010543
 5132 Fit       0.010594
 5133 Fit       0.010613
 5134 Fit       0.010595
 5135 Fit       0.010545
 5136 Fit       0.010483
 5137 Fit       0.010442
 5138 Fit       0.010470
 5139 Fit       0.010635
 5140 Fit       0.011934
 5141 Fit       0.011724
 5142 Fit       0.011662
 5143 Fit       0.011686
 5144 Fit       0.011748
 5145 Fit       0.011809
 5146 Fit       0.011846
 5147 Fit       0.011846
 5148 Fit       0.011810
 5149 Fit       0.011750
 5150 Fit       0.011689
 5151 Fit       0.011664
 5152 Fit       0.011726
 5153 Fit       0.011936
 5154 Fit       0.012381
 5155 Fit       0.012322
 5156 Fit       0.012346
 5157 Fit       0.012422
 5158 Fit       0.012515
 5159 Fit       0.012595
 5160 Fit       0.012641
 5161 Fit       0.012641
 5162 Fit       0.012596
 5163 Fit       0.012516
 5164 Fit       0.012423
 5165 Fit       0.012347
 5166 Fit       0.012323
 5167 Fit       0.012381
 5168 Fit       0.012033
 5169 Fit       0.012303
 5170 Fit       0.012513
 5171 Fit       0.012698
 5172 Fit       0.012856
 5173 Fit       0.012973
 5174 Fit       0.013036
 5175 Fit       0.013036
 5176 Fit       0.012974
 5177 Fit       0.012857
 5178 Fit       0.012698
 5179 Fit       0.012513
 5180 Fit       0.012303
 5181 Fit       0.012031
 5182 Fit       0.011363
 5183 Fit       0.012003
 5184 Fit       0.012433
 5185 Fit       0.012737
 5186 Fit       0.012940
 5187 Fit       0.013042
 5188 Fit       0.013042
 5189 Fit       0.012940
 5190 Fit       0.012738
 5191 Fit       0.012433
 5192 Fit       0.012002
 5193 Fit       0.011360
 5194 Fit       0.008965
 5195 Fit       0.010563
 5196 Fit       0.011514
 5197 Fit       0.012110
 5198 Fit       0.012471
 5199 Fit       0.012645
 5200 Fit       0.012645
 5201 Fit       0.012471
 5202 Fit       0.012109
 5203 Fit       0.011513
 5204 Fit       0.010561
 5205 Fit       0.008962
 5206 Fit       0.008395
 5207 Fit       0.010143
 5208 Fit       0.011141
 5209 Fit       0.011665
 5210 Fit       0.011830
 5211 Fit       0.011665
 5212 Fit       0.011140
 5213 Fit       0.010142
 5214 Fit       0.008392
 5215 Fit       0.006049
 5216 Fit       0.008729
 5217 Fit       0.010051
 5218 Fit       0.010448
 5219 Fit       0.010050
 5220 Fit       0.008728
 5221 Fit       0.006047
 5222 Fit       0.007050
 5223 Fit       0.008341
 5224 Fit       0.007049
 5225 Fit       0.005181
 -----------------------------------------------------------------
 Leave Link  602 at Thu Nov  2 13:05:04 2023, MaxMem=   134217728 cpu:               0.4 elap:               0.4

 Test job not archived.
 1\1\GINC-LAC-354\FOpt\RHF\6-31G(d)\C7H6O2\RAHNAMOU\02-Nov-2023\0\\#HF/
 6-31G* SCF=tight Pop=MK iop(6/33=2) iop(6/42=6) opt\\mobley_1046331\\0
 ,1\C,1.8603897866,-1.0815982739,-0.1286179013\C,2.9051919074,-1.641650
 4199,0.5889064614\C,2.9013794189,-1.6035562224,1.9735928005\C,1.844837
 8051,-0.998963822,2.6232158103\C,0.7933835187,-0.4393655048,1.92672691
 72\C,0.8062899191,-0.4824855098,0.5422400845\O,1.8058896137,-1.0137459
 366,4.0086463416\C,2.3471277571,-0.0059249559,4.6880956584\O,2.8792331
 182,0.9395393131,4.2285944962\H,1.866625959,-1.1135548259,-1.203022174
 7\H,3.7243331546,-2.1093404238,0.0733254563\H,3.7015717126,-2.03581693
 84,2.5452322675\H,-0.0175021732,0.0181265771,2.462541939\H,-0.00761841
 ,-0.0483000821,-0.0096532575\H,2.2228669122,-0.1883629746,5.7491751006
 \\Version=ES64L-G16RevC.01\State=1-A\HF=-418.2991441\RMSD=6.976e-09\RM
 SF=6.007e-05\Dipole=-0.3296427,-0.603853,-0.1659279\Quadrupole=0.50213
 26,-6.0912183,5.5890857,-5.1965449,-0.5756972,-0.9533783\PG=C01 [X(C7H
 6O2)]\\@


 REALITY IS FOR PEOPLE WHO CAN'T FACE SCIENCE FICTION.
 Job cpu time:       0 days  0 hours  0 minutes 52.3 seconds.
 Elapsed time:       0 days  0 hours  0 minutes 52.5 seconds.
 File lengths (MBytes):  RWF=    272 Int=      0 D2E=      0 Chk=     32 Scr=     32
 Normal termination of Gaussian 16 at Thu Nov  2 13:05:04 2023.
