 Entering Gaussian System, Link 0=/opt/software/Gaussian/g16-AVX2-C.01/g16/g16
 Input=mobley_1144156.com
 Output=mobley_1144156.log
 Initial command:
 /opt/software/Gaussian/g16-AVX2-C.01/g16/l1.exe "/mnt/gs21/scratch/rahnamou/Gau-27376.inp" -scrdir="/mnt/gs21/scratch/rahnamou/"
 Entering Link 1 = /opt/software/Gaussian/g16-AVX2-C.01/g16/l1.exe PID=     27385.
  
 Copyright (c) 1988-2019, Gaussian, Inc.  All Rights Reserved.
  
 This is part of the Gaussian(R) 16 program.  It is based on
 the Gaussian(R) 09 system (copyright 2009, Gaussian, Inc.),
 the Gaussian(R) 03 system (copyright 2003, Gaussian, Inc.),
 the Gaussian(R) 98 system (copyright 1998, Gaussian, Inc.),
 the Gaussian(R) 94 system (copyright 1995, Gaussian, Inc.),
 the Gaussian 92(TM) system (copyright 1992, Gaussian, Inc.),
 the Gaussian 90(TM) system (copyright 1990, Gaussian, Inc.),
 the Gaussian 88(TM) system (copyright 1988, Gaussian, Inc.),
 the Gaussian 86(TM) system (copyright 1986, Carnegie Mellon
 University), and the Gaussian 82(TM) system (copyright 1983,
 Carnegie Mellon University). Gaussian is a federally registered
 trademark of Gaussian, Inc.
  
 This software contains proprietary and confidential information,
 including trade secrets, belonging to Gaussian, Inc.
  
 This software is provided under written license and may be
 used, copied, transmitted, or stored only in accord with that
 written license.
  
 The following legend is applicable only to US Government
 contracts under FAR:
  
                    RESTRICTED RIGHTS LEGEND
  
 Use, reproduction and disclosure by the US Government is
 subject to restrictions as set forth in subparagraphs (a)
 and (c) of the Commercial Computer Software - Restricted
 Rights clause in FAR 52.227-19.
  
 Gaussian, Inc.
 340 Quinnipiac St., Bldg. 40, Wallingford CT 06492
  
  
 ---------------------------------------------------------------
 Warning -- This program may not be used in any manner that
 competes with the business of Gaussian, Inc. or will provide
 assistance to any competitor of Gaussian, Inc.  The licensee
 of this program is prohibited from giving any competitor of
 Gaussian, Inc. access to this program.  By using this program,
 the user acknowledges that Gaussian, Inc. is engaged in the
 business of creating and licensing software in the field of
 computational chemistry and represents and warrants to the
 licensee that it is not a competitor of Gaussian, Inc. and that
 it will not use this program in any manner prohibited above.
 ---------------------------------------------------------------
  

 Cite this work as:
 Gaussian 16, Revision C.01,
 M. J. Frisch, G. W. Trucks, H. B. Schlegel, G. E. Scuseria, 
 M. A. Robb, J. R. Cheeseman, G. Scalmani, V. Barone, 
 G. A. Petersson, H. Nakatsuji, X. Li, M. Caricato, A. V. Marenich, 
 J. Bloino, B. G. Janesko, R. Gomperts, B. Mennucci, H. P. Hratchian, 
 J. V. Ortiz, A. F. Izmaylov, J. L. Sonnenberg, D. Williams-Young, 
 F. Ding, F. Lipparini, F. Egidi, J. Goings, B. Peng, A. Petrone, 
 T. Henderson, D. Ranasinghe, V. G. Zakrzewski, J. Gao, N. Rega, 
 G. Zheng, W. Liang, M. Hada, M. Ehara, K. Toyota, R. Fukuda, 
 J. Hasegawa, M. Ishida, T. Nakajima, Y. Honda, O. Kitao, H. Nakai, 
 T. Vreven, K. Throssell, J. A. Montgomery, Jr., J. E. Peralta, 
 F. Ogliaro, M. J. Bearpark, J. J. Heyd, E. N. Brothers, K. N. Kudin, 
 V. N. Staroverov, T. A. Keith, R. Kobayashi, J. Normand, 
 K. Raghavachari, A. P. Rendell, J. C. Burant, S. S. Iyengar, 
 J. Tomasi, M. Cossi, J. M. Millam, M. Klene, C. Adamo, R. Cammi, 
 J. W. Ochterski, R. L. Martin, K. Morokuma, O. Farkas, 
 J. B. Foresman, and D. J. Fox, Gaussian, Inc., Wallingford CT, 2019.
 
 ******************************************
 Gaussian 16:  ES64L-G16RevC.01  3-Jul-2019
                 2-Nov-2023 
 ******************************************
 %chk=mobley_1144156.chk
 %mem=1GB
 %NProcShared=1
 Will use up to    1 processors via shared memory.
 -------------------------------------------------------
 #HF/6-31G* SCF=tight Pop=MK iop(6/33=2) iop(6/42=6) opt
 -------------------------------------------------------
 1/18=20,19=15,38=1/1,3;
 2/9=110,12=2,17=6,18=5,40=1/2;
 3/5=1,6=6,7=1,11=9,25=1,30=1,71=1/1,2,3;
 4//1;
 5/5=2,32=2,38=5/2;
 6/7=2,8=2,9=2,10=2,15=8,20=1,28=1,33=2,42=6/1,2;
 7//1,2,3,16;
 1/18=20,19=15/3(2);
 2/9=110/2;
 99//99;
 2/9=110/2;
 3/5=1,6=6,7=1,11=9,25=1,30=1,71=1/1,2,3;
 4/5=5,16=3,69=1/1;
 5/5=2,32=2,38=5/2;
 7//1,2,3,16;
 1/18=20,19=15/3(-5);
 2/9=110/2;
 6/7=2,8=2,9=2,10=2,15=8,19=2,20=1,28=1,33=2,42=6/1,2;
 99/9=1/99;
 --------------
 mobley_1144156
 --------------
 Symbolic Z-matrix:
 Charge =  0 Multiplicity = 1
 C                     0.917     1.45      0.586 
 C                     1.91      0.913    -0.422 
 O                     1.517     1.324    -1.723 
 C                     2.416     0.847    -2.716 
 C                     1.942     1.318    -4.074 
 H                     1.191     1.151     1.601 
 H                     0.872     2.543     0.539 
 H                    -0.091     1.081     0.369 
 H                     1.935    -0.181    -0.391 
 H                     2.913     1.3      -0.218 
 H                     3.414     1.236    -2.501 
 H                     2.438    -0.245    -2.673 
 H                     2.613     0.968    -4.863 
 H                     0.931     0.95     -4.28 
 H                     1.895     2.412    -4.109 
 

 GradGradGradGradGradGradGradGradGradGradGradGradGradGradGradGradGradGrad
 Berny optimization.
 Initialization pass.
                           ----------------------------
                           !    Initial Parameters    !
                           ! (Angstroms and Degrees)  !
 --------------------------                            --------------------------
 ! Name  Definition              Value          Derivative Info.                !
 --------------------------------------------------------------------------------
 ! R1    R(1,2)                  1.5134         estimate D2E/DX2                !
 ! R2    R(1,6)                  1.093          estimate D2E/DX2                !
 ! R3    R(1,7)                  1.0949         estimate D2E/DX2                !
 ! R4    R(1,8)                  1.0951         estimate D2E/DX2                !
 ! R5    R(2,3)                  1.4198         estimate D2E/DX2                !
 ! R6    R(2,9)                  1.0947         estimate D2E/DX2                !
 ! R7    R(2,10)                 1.0943         estimate D2E/DX2                !
 ! R8    R(3,4)                  1.4219         estimate D2E/DX2                !
 ! R9    R(4,5)                  1.5135         estimate D2E/DX2                !
 ! R10   R(4,11)                 1.0925         estimate D2E/DX2                !
 ! R11   R(4,12)                 1.0931         estimate D2E/DX2                !
 ! R12   R(5,13)                 1.0933         estimate D2E/DX2                !
 ! R13   R(5,14)                 1.0954         estimate D2E/DX2                !
 ! R14   R(5,15)                 1.0956         estimate D2E/DX2                !
 ! A1    A(2,1,6)              110.913          estimate D2E/DX2                !
 ! A2    A(2,1,7)              110.6447         estimate D2E/DX2                !
 ! A3    A(2,1,8)              110.6336         estimate D2E/DX2                !
 ! A4    A(6,1,7)              108.8585         estimate D2E/DX2                !
 ! A5    A(6,1,8)              108.8183         estimate D2E/DX2                !
 ! A6    A(7,1,8)              106.8589         estimate D2E/DX2                !
 ! A7    A(1,2,3)              109.0241         estimate D2E/DX2                !
 ! A8    A(1,2,9)              110.5308         estimate D2E/DX2                !
 ! A9    A(1,2,10)             110.5944         estimate D2E/DX2                !
 ! A10   A(3,2,9)              108.7563         estimate D2E/DX2                !
 ! A11   A(3,2,10)             108.7933         estimate D2E/DX2                !
 ! A12   A(9,2,10)             109.1001         estimate D2E/DX2                !
 ! A13   A(2,3,4)              111.5799         estimate D2E/DX2                !
 ! A14   A(3,4,5)              108.9174         estimate D2E/DX2                !
 ! A15   A(3,4,11)             108.7043         estimate D2E/DX2                !
 ! A16   A(3,4,12)             108.6867         estimate D2E/DX2                !
 ! A17   A(5,4,11)             110.6013         estimate D2E/DX2                !
 ! A18   A(5,4,12)             110.64           estimate D2E/DX2                !
 ! A19   A(11,4,12)            109.2439         estimate D2E/DX2                !
 ! A20   A(4,5,13)             110.8359         estimate D2E/DX2                !
 ! A21   A(4,5,14)             110.685          estimate D2E/DX2                !
 ! A22   A(4,5,15)             110.662          estimate D2E/DX2                !
 ! A23   A(13,5,14)            108.8554         estimate D2E/DX2                !
 ! A24   A(13,5,15)            108.8416         estimate D2E/DX2                !
 ! A25   A(14,5,15)            106.8494         estimate D2E/DX2                !
 ! D1    D(6,1,2,3)           -179.9929         estimate D2E/DX2                !
 ! D2    D(6,1,2,9)             60.5142         estimate D2E/DX2                !
 ! D3    D(6,1,2,10)           -60.4158         estimate D2E/DX2                !
 ! D4    D(7,1,2,3)            -59.0794         estimate D2E/DX2                !
 ! D5    D(7,1,2,9)           -178.5723         estimate D2E/DX2                !
 ! D6    D(7,1,2,10)            60.4978         estimate D2E/DX2                !
 ! D7    D(8,1,2,3)             59.1517         estimate D2E/DX2                !
 ! D8    D(8,1,2,9)            -60.3412         estimate D2E/DX2                !
 ! D9    D(8,1,2,10)           178.7289         estimate D2E/DX2                !
 ! D10   D(1,2,3,4)           -179.992          estimate D2E/DX2                !
 ! D11   D(9,2,3,4)            -59.4038         estimate D2E/DX2                !
 ! D12   D(10,2,3,4)            59.3202         estimate D2E/DX2                !
 ! D13   D(2,3,4,5)            179.9977         estimate D2E/DX2                !
 ! D14   D(2,3,4,11)           -59.4234         estimate D2E/DX2                !
 ! D15   D(2,3,4,12)            59.3823         estimate D2E/DX2                !
 ! D16   D(3,4,5,13)           179.9793         estimate D2E/DX2                !
 ! D17   D(3,4,5,14)           -59.1357         estimate D2E/DX2                !
 ! D18   D(3,4,5,15)            59.1269         estimate D2E/DX2                !
 ! D19   D(11,4,5,13)           60.5743         estimate D2E/DX2                !
 ! D20   D(11,4,5,14)         -178.5407         estimate D2E/DX2                !
 ! D21   D(11,4,5,15)          -60.2781         estimate D2E/DX2                !
 ! D22   D(12,4,5,13)          -60.6138         estimate D2E/DX2                !
 ! D23   D(12,4,5,14)           60.2712         estimate D2E/DX2                !
 ! D24   D(12,4,5,15)          178.5339         estimate D2E/DX2                !
 --------------------------------------------------------------------------------
 Trust Radius=3.00D-01 FncErr=1.00D-07 GrdErr=1.00D-07 EigMax=2.50D+02 EigMin=1.00D-04
 Number of steps in this run=     73 maximum allowed number of steps=    100.
 GradGradGradGradGradGradGradGradGradGradGradGradGradGradGradGradGradGrad

                          Input orientation:                          
 ---------------------------------------------------------------------
 Center     Atomic      Atomic             Coordinates (Angstroms)
 Number     Number       Type             X           Y           Z
 ---------------------------------------------------------------------
      1          6           0        0.917000    1.450000    0.586000
      2          6           0        1.910000    0.913000   -0.422000
      3          8           0        1.517000    1.324000   -1.723000
      4          6           0        2.416000    0.847000   -2.716000
      5          6           0        1.942000    1.318000   -4.074000
      6          1           0        1.191000    1.151000    1.601000
      7          1           0        0.872000    2.543000    0.539000
      8          1           0       -0.091000    1.081000    0.369000
      9          1           0        1.935000   -0.181000   -0.391000
     10          1           0        2.913000    1.300000   -0.218000
     11          1           0        3.414000    1.236000   -2.501000
     12          1           0        2.438000   -0.245000   -2.673000
     13          1           0        2.613000    0.968000   -4.863000
     14          1           0        0.931000    0.950000   -4.280000
     15          1           0        1.895000    2.412000   -4.109000
 ---------------------------------------------------------------------
                    Distance matrix (angstroms):
                    1          2          3          4          5
     1  C    0.000000
     2  C    1.513434   0.000000
     3  O    2.389008   1.419849   0.000000
     4  C    3.676114   2.350070   1.421893   0.000000
     5  C    4.773222   3.674528   2.389113   1.513500   0.000000
     6  H    1.093024   2.160124   3.344425   4.497725   5.726911
     7  H    1.094935   2.158209   2.649270   3.981881   4.891349
     8  H    1.095132   2.158218   2.649750   3.982089   4.891780
     9  H    2.156621   1.094725   2.052796   2.587232   3.976373
    10  H    2.157066   1.094255   2.052905   2.586933   3.976418
    11  H    3.976226   2.586230   2.052227   1.092497   2.155884
    12  H    3.975871   2.585875   2.052438   1.093068   2.156800
    13  H    5.727158   4.496634   3.344780   2.159412   1.093280
    14  H    4.891641   3.980449   2.649815   2.159150   1.095436
    15  H    4.891314   3.980100   2.649457   2.158962   1.095568
                    6          7          8          9         10
     6  H    0.000000
     7  H    1.779682   0.000000
     8  H    1.779395   1.758895   0.000000
     9  H    2.509148   3.068395   2.504979   0.000000
    10  H    2.509232   2.506747   3.068639   1.783192   0.000000
    11  H    4.666407   4.172722   4.532764   2.940651   2.338201
    12  H    4.665930   4.532355   4.172275   2.337655   2.939332
    13  H    6.621093   5.890103   5.890519   4.666762   4.666503
    14  H    5.890175   5.075814   4.761811   4.172709   4.533284
    15  H    5.889808   4.761050   5.076243   4.533075   4.172859
                   11         12         13         14         15
    11  H    0.000000
    12  H    1.781999   0.000000
    13  H    2.508479   2.509600   0.000000
    14  H    3.067886   2.506297   1.780263   0.000000
    15  H    2.505195   3.068647   1.780218   1.759540   0.000000
 Stoichiometry    C4H10O
 Framework group  C1[X(C4H10O)]
 Deg. of freedom    39
 Full point group                 C1      NOp   1
 Largest Abelian subgroup         C1      NOp   1
 Largest concise Abelian subgroup C1      NOp   1
                         Standard orientation:                         
 ---------------------------------------------------------------------
 Center     Atomic      Atomic             Coordinates (Angstroms)
 Number     Number       Type             X           Y           Z
 ---------------------------------------------------------------------
      1          6           0       -2.386812   -0.391872   -0.000052
      2          6           0       -1.174529    0.514137   -0.000197
      3          8           0       -0.000241   -0.283997   -0.000094
      4          6           0        1.175540    0.515577   -0.000038
      5          6           0        2.386411   -0.392429    0.000130
      6          1           0       -3.310560    0.192414   -0.000253
      7          1           0       -2.380858   -1.044839   -0.878961
      8          1           0       -2.381321   -1.043723    0.879934
      9          1           0       -1.169131    1.148392    0.892055
     10          1           0       -1.168900    1.149423   -0.891137
     11          1           0        1.169300    1.147840   -0.890967
     12          1           0        1.168523    1.148619    0.891032
     13          1           0        3.310533    0.191746   -0.000193
     14          1           0        2.380490   -1.045130    0.879861
     15          1           0        2.380191   -1.045244   -0.879679
 ---------------------------------------------------------------------
 Rotational constants (GHZ):          18.4119927           2.2301837           2.0934131
 Standard basis: 6-31G(d) (6D, 7F)
 There are    95 symmetry adapted cartesian basis functions of A   symmetry.
 There are    95 symmetry adapted basis functions of A   symmetry.
    95 basis functions,   180 primitive gaussians,    95 cartesian basis functions
    21 alpha electrons       21 beta electrons
       nuclear repulsion energy       189.8434067628 Hartrees.
 NAtoms=   15 NActive=   15 NUniq=   15 SFac= 1.00D+00 NAtFMM=   60 NAOKFM=F Big=F
 Integral buffers will be    131072 words long.
 Raffenetti 1 integral format.
 Two-electron integral symmetry is turned on.
 One-electron integrals computed using PRISM.
 NBasis=    95 RedAO= T EigKep=  4.78D-03  NBF=    95
 NBsUse=    95 1.00D-06 EigRej= -1.00D+00 NBFU=    95
 ExpMin= 1.61D-01 ExpMax= 5.48D+03 ExpMxC= 8.25D+02 IAcc=3 IRadAn=         5 AccDes= 0.00D+00
 Harris functional with IExCor=  205 and IRadAn=       5 diagonalized for initial guess.
 HarFok:  IExCor=  205 AccDes= 0.00D+00 IRadAn=         5 IDoV= 1 UseB2=F ITyADJ=14
 ICtDFT=  3500011 ScaDFX=  1.000000  1.000000  1.000000  1.000000
 FoFCou: FMM=F IPFlag=           0 FMFlag=      100000 FMFlg1=           0
         NFxFlg=           0 DoJE=T BraDBF=F KetDBF=T FulRan=T
         wScrn=  0.000000 ICntrl=       500 IOpCl=  0 I1Cent=   200000004 NGrid=           0
         NMat0=    1 NMatS0=      1 NMatT0=    0 NMatD0=    1 NMtDS0=    0 NMtDT0=    0
 Petite list used in FoFCou.
 Keep R1 ints in memory in canonical form, NReq=11281278.
 Requested convergence on RMS density matrix=1.00D-08 within 128 cycles.
 Requested convergence on MAX density matrix=1.00D-06.
 Requested convergence on             energy=1.00D-06.
 No special actions if energy rises.
 SCF Done:  E(RHF) =  -232.142987310     A.U. after   11 cycles
            NFock= 11  Conv=0.74D-08     -V/T= 2.0017
 SCF density gives NOpUse=  1 NOpAll=  1.

 **********************************************************************

            Population analysis using the SCF Density.

 **********************************************************************

 Orbital symmetries:
 BldTbl:  Degeneracy threshold= 1.00D-02
       Occupied  (A) (A) (A) (A) (A) (A) (A) (A) (A) (A) (A) (A)
                 (A) (A) (A) (A) (A) (A) (A) (A) (A)
       Virtual   (A) (A) (A) (A) (A) (A) (A) (A) (A) (A) (A) (A)
                 (A) (A) (A) (A) (A) (A) (A) (A) (A) (A) (A) (A)
                 (A) (A) (A) (A) (A) (A) (A) (A) (A) (A) (A) (A)
                 (A) (A) (A) (A) (A) (A) (A) (A) (A) (A) (A) (A)
                 (A) (A) (A) (A) (A) (A) (A) (A) (A) (A) (A) (A)
                 (A) (A) (A) (A) (A) (A) (A) (A) (A) (A) (A) (A)
                 (A) (A)
 The electronic state is 1-A.
 Alpha  occ. eigenvalues --  -20.55076 -11.27030 -11.27024 -11.21317 -11.21289
 Alpha  occ. eigenvalues --   -1.36304  -1.03927  -0.98192  -0.83842  -0.82632
 Alpha  occ. eigenvalues --   -0.67458  -0.65577  -0.60399  -0.59358  -0.55024
 Alpha  occ. eigenvalues --   -0.52492  -0.51991  -0.49135  -0.48520  -0.46685
 Alpha  occ. eigenvalues --   -0.41384
 Alpha virt. eigenvalues --    0.23488   0.25822   0.28067   0.29207   0.30769
 Alpha virt. eigenvalues --    0.32607   0.32739   0.34723   0.35129   0.35947
 Alpha virt. eigenvalues --    0.36202   0.39025   0.43717   0.45717   0.69633
 Alpha virt. eigenvalues --    0.75047   0.76079   0.76167   0.76681   0.80257
 Alpha virt. eigenvalues --    0.85273   0.88396   0.90989   0.96461   0.97163
 Alpha virt. eigenvalues --    1.05222   1.09206   1.10403   1.16349   1.16561
 Alpha virt. eigenvalues --    1.16800   1.18405   1.19281   1.19922   1.21105
 Alpha virt. eigenvalues --    1.24022   1.24501   1.35635   1.40130   1.43573
 Alpha virt. eigenvalues --    1.52729   1.70705   1.71566   1.72306   1.73033
 Alpha virt. eigenvalues --    1.75201   1.98456   2.04394   2.07216   2.23172
 Alpha virt. eigenvalues --    2.23858   2.26054   2.27777   2.35924   2.42163
 Alpha virt. eigenvalues --    2.46236   2.48327   2.52274   2.58729   2.59466
 Alpha virt. eigenvalues --    2.65738   2.66994   2.75227   2.83638   2.84261
 Alpha virt. eigenvalues --    2.93310   3.02294   3.19832   3.36453   4.36168
 Alpha virt. eigenvalues --    4.61234   4.61481   4.80639   4.88207
          Condensed to atoms (all electrons):
               1          2          3          4          5          6
     1  C    5.095984   0.360247  -0.050773   0.005172  -0.000156   0.383024
     2  C    0.360247   4.774883   0.208987  -0.049381   0.005161  -0.036716
     3  O   -0.050773   0.208987   8.477468   0.208978  -0.050784   0.002713
     4  C    0.005172  -0.049381   0.208978   4.775098   0.360180  -0.000135
     5  C   -0.000156   0.005161  -0.050784   0.360180   5.096031   0.000002
     6  H    0.383024  -0.036716   0.002713  -0.000135   0.000002   0.545695
     7  H    0.389330  -0.035035   0.001395  -0.000148  -0.000001  -0.024846
     8  H    0.389369  -0.035032   0.001394  -0.000148  -0.000001  -0.024905
     9  H   -0.041456   0.396290  -0.042851  -0.006578  -0.000087  -0.000313
    10  H   -0.041375   0.396232  -0.042787  -0.006560  -0.000087  -0.000322
    11  H   -0.000090  -0.006493  -0.042687   0.396345  -0.041324   0.000009
    12  H   -0.000090  -0.006486  -0.042724   0.396340  -0.041254   0.000009
    13  H    0.000002  -0.000135   0.002718  -0.036849   0.382960  -0.000000
    14  H   -0.000001  -0.000147   0.001376  -0.034941   0.389355   0.000000
    15  H   -0.000001  -0.000147   0.001373  -0.034963   0.389351   0.000000
               7          8          9         10         11         12
     1  C    0.389330   0.389369  -0.041456  -0.041375  -0.000090  -0.000090
     2  C   -0.035035  -0.035032   0.396290   0.396232  -0.006493  -0.006486
     3  O    0.001395   0.001394  -0.042851  -0.042787  -0.042687  -0.042724
     4  C   -0.000148  -0.000148  -0.006578  -0.006560   0.396345   0.396340
     5  C   -0.000001  -0.000001  -0.000087  -0.000087  -0.041324  -0.041254
     6  H   -0.024846  -0.024905  -0.000313  -0.000322   0.000009   0.000009
     7  H    0.525909  -0.028813   0.004586  -0.004875  -0.000021   0.000020
     8  H   -0.028813   0.526022  -0.004905   0.004579   0.000020  -0.000021
     9  H    0.004586  -0.004905   0.597255  -0.047135  -0.001443   0.008344
    10  H   -0.004875   0.004579  -0.047135   0.596972   0.008333  -0.001448
    11  H   -0.000021   0.000020  -0.001443   0.008333   0.595492  -0.046902
    12  H    0.000020  -0.000021   0.008344  -0.001448  -0.046902   0.595582
    13  H    0.000000   0.000000   0.000009   0.000009  -0.000322  -0.000319
    14  H   -0.000000   0.000001  -0.000021   0.000020   0.004565  -0.004857
    15  H    0.000001  -0.000000   0.000020  -0.000021  -0.004865   0.004560
              13         14         15
     1  C    0.000002  -0.000001  -0.000001
     2  C   -0.000135  -0.000147  -0.000147
     3  O    0.002718   0.001376   0.001373
     4  C   -0.036849  -0.034941  -0.034963
     5  C    0.382960   0.389355   0.389351
     6  H   -0.000000   0.000000   0.000000
     7  H    0.000000  -0.000000   0.000001
     8  H    0.000000   0.000001  -0.000000
     9  H    0.000009  -0.000021   0.000020
    10  H    0.000009   0.000020  -0.000021
    11  H   -0.000322   0.004565  -0.004865
    12  H   -0.000319  -0.004857   0.004560
    13  H    0.545916  -0.024841  -0.024857
    14  H   -0.024841   0.525678  -0.028784
    15  H   -0.024857  -0.028784   0.525778
 Mulliken charges:
               1
     1  C   -0.489184
     2  C    0.027773
     3  O   -0.633796
     4  C    0.027590
     5  C   -0.489346
     6  H    0.155785
     7  H    0.172499
     8  H    0.172440
     9  H    0.138286
    10  H    0.138464
    11  H    0.139383
    12  H    0.139245
    13  H    0.155709
    14  H    0.172597
    15  H    0.172555
 Sum of Mulliken charges =  -0.00000
 Mulliken charges with hydrogens summed into heavy atoms:
               1
     1  C    0.011540
     2  C    0.304523
     3  O   -0.633796
     4  C    0.306218
     5  C    0.011515
 DipInt: DoE/N= T F RetVal/Mat= T F Init=T NMatP=  1 IDeriv=0 Min/MaxMlt=  0  4
 Entering OneElI...
 OneElI was handed   134192546 working-precision words.
 Multipole integrals L=0 to 4 MinM= 0 MaxM= 0.
 Requested accuracy = 0.1000D-12
 ShPair: Thresh= 1.00D-13 NBox=     0 BxSize= 0.00D+00 RnKept= 1.25D+01
         NSMCal=                  820 NSMKep=                 796
 PrmmSu-InSpLW:  IPartL=    0 NPrtUS=    1 NPrtUL=    1 DoSpLW=F IThBeg=    0 IThEnd=    0 NThAct=    1.
 PrSmSu:  IncTry=   512 NBBP=            796 NTPThr=   100 NPartT=    1 Incr=           7 LDynOK=F GPUOK=F.
 PrsmSu:  NPrtUS=   1 ThrOK=F IAlg=2 LenDen=           0 ISkipM=0 DoSpLW=F IThBeg=    0 IThEnd=    0.
 Prism:   IPart=     0 DynPar=F LinDyn=F Incr=           7.
 PRISM was handed   134122758 working-precision words and   796 shell-pairs
 IPart=  0 NShTot=         796 NBatch=          34 AvBLen=        23.4
 PrsmSu-ThDecC:  IPartSL=    0    0 NPrtUSL=    1    1 IThBeg=    0 IThEnd=    0 CPU=   -1 GPU=   -1 NThAct=    1.
 PrSmSu:  NxtVal=              8.
 Electronic moments (au):
        -42.00000000          0.00335395          0.53685053         -0.00039639
       -504.81440368        -79.92081190        -46.98022316          0.00585703
         -0.00093887         -0.00130175          0.30167083        -16.66859407
         -0.03637184         -0.10632384        214.13422233         -0.03982943
          0.02756217         -3.67836791         -0.00165842          0.00358058
     -11913.23537489       -451.65411641       -221.11663892          0.41247494
         -0.04259261          0.23520540         -0.04494075          0.08484849
         -0.01927505       -961.47561022       -618.62117701       -163.58435945
          0.07121482         -0.04700552          0.14914380
 Electronic spatial extent (au):  <R**2>=            631.7154
 DipInt: DoE/N= F T RetVal/Mat= T F Init=T NMatP=  1 IDeriv=0 Min/MaxMlt=  0  4
 Nuclear    moments (au):
         42.00000000         -0.00000000         -0.00000000          0.00000000
        482.00800005         54.95178614         22.39948268         -0.00000000
          0.00000000          0.00000000         -0.29170434         15.14747730
          0.03389887          0.13761079       -212.37407586          0.03891852
         -0.00750762          2.81036882         -0.00404423         -0.00457066
      10053.98648363        164.61256784         62.72807612         -0.35353736
          0.00459077         -0.17654824          0.03339787         -0.09653415
          0.00703051        607.87920134        279.06520549         96.53536068
         -0.09035666          0.06006465         -0.11802800
 Total      moments (au):
         -0.00000000          0.00335395          0.53685053         -0.00039639
        -22.80640363        -24.96902576        -24.58074047          0.00585703
         -0.00093887         -0.00130175          0.00996650         -1.52111677
         -0.00247297          0.03128695          1.76014647         -0.00091091
          0.02005456         -0.86799909         -0.00570265         -0.00099009
      -1859.24889126       -287.04154858       -158.38856281          0.05893758
         -0.03800183          0.05865716         -0.01154288         -0.01168566
         -0.01224453       -353.59640888       -339.55597152        -67.04899877
         -0.01914184          0.01305913          0.03111580
 Traceless Quadrup. (au):
          1.31231966         -0.85030247         -0.46201719          0.00585703
         -0.00093887         -0.00130175
 Charge=             -0.0000 electrons
 Dipole moment (field-independent basis, Debye):
    X=              0.0085    Y=              1.3645    Z=             -0.0010  Tot=              1.3646
 Quadrupole moment (field-independent basis, Debye-Ang):
   XX=            -30.6754   YY=            -33.5842   ZZ=            -33.0619
   XY=              0.0079   XZ=             -0.0013   YZ=             -0.0018
 Traceless Quadrupole moment (field-independent basis, Debye-Ang):
   XX=              1.7651   YY=             -1.1437   ZZ=             -0.6214
   XY=              0.0079   XZ=             -0.0013   YZ=             -0.0018
 Octapole moment (field-independent basis, Debye-Ang**2):
  XXX=              0.0071  YYY=             -1.0827  ZZZ=             -0.0018  XYY=              0.0223
  XXY=              1.2528  XXZ=             -0.0006  XZZ=              0.0143  YZZ=             -0.6178
  YYZ=             -0.0041  XYZ=             -0.0007
 Hexadecapole moment (field-independent basis, Debye-Ang**3):
 XXXX=           -700.2823 YYYY=           -108.1136 ZZZZ=            -59.6567 XXXY=              0.0222
 XXXZ=             -0.0143 YYYX=              0.0221 YYYZ=             -0.0043 ZZZX=             -0.0044
 ZZZY=             -0.0046 XXYY=           -133.1814 XXZZ=           -127.8931 YYZZ=            -25.2539
 XXYZ=             -0.0072 YYXZ=              0.0049 ZZXY=              0.0117
 N-N= 1.898434067628D+02 E-N=-9.226322777351D+02  KE= 2.317525554602D+02
 Entering OneElI...
 OneElI was handed   134196621 working-precision words.
 Calculate electrostatic properties
    NBasis =    95  MinDer = 0  MaxDer = 0
    NGrid  =    15  NMatD  =   1
 Requested accuracy = 0.1000D-12
 ShPair: Thresh= 1.00D-13 NBox=     0 BxSize= 0.00D+00 RnKept= 1.25D+01
         NSMCal=                  820 NSMKep=                 768
 PrmmSu-InSpLW:  IPartL=    0 NPrtUS=    1 NPrtUL=    1 DoSpLW=F IThBeg=    0 IThEnd=    0 NThAct=    1.
 PrSmSu:  IncTry=   512 NBBP=          11520 NTPThr=   100 NPartT=    1 Incr=         115 LDynOK=F GPUOK=F.
 PrsmSu:  NPrtUS=   1 ThrOK=F IAlg=2 LenDen=           0 ISkipM=0 DoSpLW=F IThBeg=    0 IThEnd=    0.
 Prism:   IPart=     0 DynPar=F LinDyn=F Incr=         115.
 PRISM was handed   134129805 working-precision words and   768 shell-pairs
 IPart=  0 NShTot=       11520 NBatch=         768 AvBLen=        15.0
 PrsmSu-ThDecC:  IPartSL=    0    0 NPrtUSL=    1    1 IThBeg=    0 IThEnd=    0 CPU=   -1 GPU=   -1 NThAct=    1.
 PrSmSu:  NxtVal=            116.
 --------------------------------------------------------
       Center         ----      EFG at Nuclei      ----
                      3XX-RR        3YY-RR        3ZZ-RR
 --------------------------------------------------------
     1   Atom       -0.012991     -0.011324      0.024315
     2   Atom       -0.174023     -0.001446      0.175469
     3   Atom       -1.847732     -0.094948      1.942679
     4   Atom       -0.177063     -0.001421      0.178483
     5   Atom       -0.012762     -0.011483      0.024246
     6   Atom       -0.173983      0.017737      0.156246
     7   Atom        0.147724     -0.007463     -0.140260
     8   Atom        0.147559     -0.006873     -0.140686
     9   Atom        0.135032      0.002126     -0.137157
    10   Atom        0.135408      0.001570     -0.136978
    11   Atom        0.136884      0.002415     -0.139299
    12   Atom        0.136403      0.002214     -0.138618
    13   Atom       -0.173923      0.017885      0.156038
    14   Atom        0.147326     -0.007163     -0.140164
    15   Atom        0.147215     -0.007184     -0.140031
 --------------------------------------------------------
                        XY            XZ            YZ
 --------------------------------------------------------
     1   Atom       -0.015081      0.000025      0.000131
     2   Atom        0.243157      0.000083     -0.000290
     3   Atom       -0.001206     -0.000464      0.000259
     4   Atom       -0.245031     -0.000047     -0.000366
     5   Atom        0.015080      0.000020     -0.000082
     6   Atom        0.201479     -0.000089      0.000058
     7   Atom       -0.003579      0.002981     -0.212865
     8   Atom       -0.003679     -0.002849      0.212433
     9   Atom        0.003181     -0.002924     -0.208722
    10   Atom        0.003138      0.003013      0.209483
    11   Atom       -0.003030     -0.003194      0.211262
    12   Atom       -0.002877      0.003394     -0.210641
    13   Atom       -0.201077      0.000104      0.000075
    14   Atom        0.003583      0.002992      0.212133
    15   Atom        0.003519     -0.003090     -0.211974
 --------------------------------------------------------


 ---------------------------------------------------------------------------------
              Nuclear Quadrupole Coupling Constant in Principal Axis System
 ---------------------------------------------------------------------------------

       Atom             a.u.   MegaHertz   Gauss  10(-4) cm-1        Axes


 ---------------------------------------------------------------------------------

 No NMR shielding tensors so no spin-rotation constants.
 Leave Link  601 at Thu Nov  2 13:04:55 2023, MaxMem=   134217728 cpu:               0.1 elap:               0.1
 FitSet:  NAtFit=    15 NAtPot=    15 NAtFrz=     0 MDM=    19 TotChg=   0.00000
 Merz-Kollman atomic radii used.
 Atom Element Radius
    1     6    1.50
    2     6    1.50
    3     8    1.40
    4     6    1.50
    5     6    1.50
    6     1    1.20
    7     1    1.20
    8     1    1.20
    9     1    1.20
   10     1    1.20
   11     1    1.20
   12     1    1.20
   13     1    1.20
   14     1    1.20
   15     1    1.20
 Generate VDW surfaces: Layer= 4 Dens= 6 Start= 1.400 Inc= 0.200

 **********************************************************************

            Electrostatic Properties Using The SCF Density.

 **********************************************************************

       Atomic Center    1 is at  -2.386812 -0.391872 -0.000052
       Atomic Center    2 is at  -1.174529  0.514137 -0.000197
       Atomic Center    3 is at  -0.000241 -0.283997 -0.000094
       Atomic Center    4 is at   1.175540  0.515577 -0.000038
       Atomic Center    5 is at   2.386411 -0.392429  0.000130
       Atomic Center    6 is at  -3.310560  0.192414 -0.000253
       Atomic Center    7 is at  -2.380858 -1.044839 -0.878961
       Atomic Center    8 is at  -2.381321 -1.043723  0.879934
       Atomic Center    9 is at  -1.169131  1.148392  0.892055
       Atomic Center   10 is at  -1.168900  1.149423 -0.891137
       Atomic Center   11 is at   1.169300  1.147840 -0.890967
       Atomic Center   12 is at   1.168523  1.148619  0.891032
       Atomic Center   13 is at   3.310533  0.191746 -0.000193
       Atomic Center   14 is at   2.380490 -1.045130  0.879861
       Atomic Center   15 is at   2.380191 -1.045244 -0.879679
      ESP Fit Center   16 is at  -2.386812  0.411763  1.940095
      ESP Fit Center   17 is at  -2.788629  0.304096  1.940095
      ESP Fit Center   18 is at  -2.706093  0.730287  1.746034
      ESP Fit Center   19 is at  -3.089904  0.539172  1.746034
      ESP Fit Center   20 is at  -3.378758  0.222315  1.746034
      ESP Fit Center   21 is at  -3.533644 -0.177492  1.746034
      ESP Fit Center   22 is at  -3.003671  0.958862  1.484872
      ESP Fit Center   23 is at  -3.871736 -0.391872  1.484872
      ESP Fit Center   24 is at  -4.082160 -0.809738  1.166646
      ESP Fit Center   25 is at  -4.225398 -1.011364  0.803583
      ESP Fit Center   26 is at  -4.049240 -1.392123  0.803583
      ESP Fit Center   27 is at  -4.187659 -1.391424  0.409638
      ESP Fit Center   28 is at  -3.949587 -1.733471  0.409638
      ESP Fit Center   29 is at  -4.326959 -1.195507 -0.000052
      ESP Fit Center   30 is at  -4.132898 -1.558570 -0.000052
      ESP Fit Center   31 is at  -3.871736 -1.876797 -0.000052
      ESP Fit Center   32 is at  -3.553509 -2.137958 -0.000052
      ESP Fit Center   33 is at  -3.190447 -2.332019 -0.000052
      ESP Fit Center   34 is at  -2.796501 -2.451521 -0.000052
      ESP Fit Center   35 is at  -2.386812 -2.491872 -0.000052
      ESP Fit Center   36 is at  -1.977122 -2.451521 -0.000052
      ESP Fit Center   37 is at  -1.583176 -2.332019 -0.000052
      ESP Fit Center   38 is at  -1.220114 -2.137958 -0.000052
      ESP Fit Center   39 is at  -4.187659 -1.391424 -0.409742
      ESP Fit Center   40 is at  -3.949587 -1.733471 -0.409742
      ESP Fit Center   41 is at  -4.225398 -1.011364 -0.803687
      ESP Fit Center   42 is at  -4.049240 -1.392123 -0.803687
      ESP Fit Center   43 is at  -4.082160 -0.809738 -1.166749
      ESP Fit Center   44 is at  -3.003671  0.958862 -1.484976
      ESP Fit Center   45 is at  -3.871736 -0.391872 -1.484976
      ESP Fit Center   46 is at  -2.706093  0.730287 -1.746138
      ESP Fit Center   47 is at  -3.089904  0.539172 -1.746138
      ESP Fit Center   48 is at  -3.378758  0.222315 -1.746138
      ESP Fit Center   49 is at  -3.533644 -0.177492 -1.746138
      ESP Fit Center   50 is at  -2.386812  0.411763 -1.940199
      ESP Fit Center   51 is at  -2.788629  0.304096 -1.940199
      ESP Fit Center   52 is at  -1.174529 -0.289498  1.939950
      ESP Fit Center   53 is at  -0.772711 -0.181831  1.939950
      ESP Fit Center   54 is at  -2.435253  2.142858  0.409493
      ESP Fit Center   55 is at  -2.737305  1.855736  0.409493
      ESP Fit Center   56 is at  -0.007832  2.260223 -0.000197
      ESP Fit Center   57 is at  -0.370894  2.454284 -0.000197
      ESP Fit Center   58 is at  -0.764839  2.573786 -0.000197
      ESP Fit Center   59 is at  -1.174529  2.614137 -0.000197
      ESP Fit Center   60 is at  -1.584219  2.573786 -0.000197
      ESP Fit Center   61 is at  -1.978164  2.454284 -0.000197
      ESP Fit Center   62 is at  -2.341227  2.260223 -0.000197
      ESP Fit Center   63 is at  -2.659453  1.999061 -0.000197
      ESP Fit Center   64 is at  -2.737305  1.855736 -0.409887
      ESP Fit Center   65 is at  -1.174529 -0.289498 -1.940344
      ESP Fit Center   66 is at  -0.772711 -0.181831 -1.940344
      ESP Fit Center   67 is at  -0.000241 -0.283997  1.959906
      ESP Fit Center   68 is at   0.407266 -0.283997  1.917076
      ESP Fit Center   69 is at   0.203513  0.068914  1.917076
      ESP Fit Center   70 is at  -0.203994  0.068914  1.917076
      ESP Fit Center   71 is at  -0.407748 -0.283997  1.917076
      ESP Fit Center   72 is at  -0.203994 -0.636908  1.917076
      ESP Fit Center   73 is at   0.203513 -0.636908  1.917076
      ESP Fit Center   74 is at  -0.690640 -0.682599  1.790455
      ESP Fit Center   75 is at  -0.398843 -0.974396  1.790455
      ESP Fit Center   76 is at  -0.000241 -1.081201  1.790455
      ESP Fit Center   77 is at   0.398361 -0.974396  1.790455
      ESP Fit Center   78 is at   0.690158 -0.682599  1.790455
      ESP Fit Center   79 is at  -0.694511 -1.203360  1.585580
      ESP Fit Center   80 is at  -0.315517 -1.392077  1.585580
      ESP Fit Center   81 is at   0.106058 -1.431141  1.585580
      ESP Fit Center   82 is at   0.513276 -1.315278  1.585580
      ESP Fit Center   83 is at   0.851141 -1.060134  1.585580
      ESP Fit Center   84 is at  -0.605319 -1.608934  1.311402
      ESP Fit Center   85 is at  -0.207531 -1.725735  1.311402
      ESP Fit Center   86 is at   0.207050 -1.725735  1.311402
      ESP Fit Center   87 is at   0.604838 -1.608934  1.311402
      ESP Fit Center   88 is at  -0.722963 -1.819859  0.979906
      ESP Fit Center   89 is at  -0.318304 -1.951341  0.979906
      ESP Fit Center   90 is at   0.106340 -1.978057  0.979906
      ESP Fit Center   91 is at   0.524288 -1.898329  0.979906
      ESP Fit Center   92 is at  -0.809031 -1.963467  0.605580
      ESP Fit Center   93 is at  -0.415036 -2.101331  0.605580
      ESP Fit Center   94 is at  -0.000241 -2.148068  0.605580
      ESP Fit Center   95 is at   0.414554 -2.101331  0.605580
      ESP Fit Center   96 is at   0.808549 -1.963467  0.605580
      ESP Fit Center   97 is at  -0.721737 -2.094817  0.204782
      ESP Fit Center   98 is at  -0.315596 -2.207581  0.204782
      ESP Fit Center   99 is at   0.105290 -2.230401  0.204782
      ESP Fit Center  100 is at   0.521242 -2.162209  0.204782
      ESP Fit Center  101 is at   0.912810 -2.006194  0.204782
      ESP Fit Center  102 is at  -0.721737 -2.094817 -0.204969
      ESP Fit Center  103 is at  -0.315596 -2.207581 -0.204969
      ESP Fit Center  104 is at   0.105290 -2.230401 -0.204969
      ESP Fit Center  105 is at   0.521242 -2.162209 -0.204969
      ESP Fit Center  106 is at   0.912810 -2.006194 -0.204969
      ESP Fit Center  107 is at  -0.809031 -1.963467 -0.605767
      ESP Fit Center  108 is at  -0.415036 -2.101331 -0.605767
      ESP Fit Center  109 is at  -0.000241 -2.148068 -0.605767
      ESP Fit Center  110 is at   0.414554 -2.101331 -0.605767
      ESP Fit Center  111 is at   0.808549 -1.963467 -0.605767
      ESP Fit Center  112 is at  -0.722963 -1.819859 -0.980094
      ESP Fit Center  113 is at  -0.318304 -1.951341 -0.980094
      ESP Fit Center  114 is at   0.106340 -1.978057 -0.980094
      ESP Fit Center  115 is at   0.524288 -1.898329 -0.980094
      ESP Fit Center  116 is at  -0.605319 -1.608934 -1.311590
      ESP Fit Center  117 is at  -0.207531 -1.725735 -1.311590
      ESP Fit Center  118 is at   0.207050 -1.725735 -1.311590
      ESP Fit Center  119 is at   0.604838 -1.608934 -1.311590
      ESP Fit Center  120 is at  -0.694511 -1.203360 -1.585767
      ESP Fit Center  121 is at  -0.315517 -1.392077 -1.585767
      ESP Fit Center  122 is at   0.106058 -1.431141 -1.585767
      ESP Fit Center  123 is at   0.513276 -1.315278 -1.585767
      ESP Fit Center  124 is at   0.851141 -1.060134 -1.585767
      ESP Fit Center  125 is at  -0.690640 -0.682599 -1.790643
      ESP Fit Center  126 is at  -0.398843 -0.974396 -1.790643
      ESP Fit Center  127 is at  -0.000241 -1.081201 -1.790643
      ESP Fit Center  128 is at   0.398361 -0.974396 -1.790643
      ESP Fit Center  129 is at   0.690158 -0.682599 -1.790643
      ESP Fit Center  130 is at   0.407266 -0.283997 -1.917263
      ESP Fit Center  131 is at   0.203513  0.068914 -1.917263
      ESP Fit Center  132 is at  -0.203994  0.068914 -1.917263
      ESP Fit Center  133 is at  -0.407748 -0.283997 -1.917263
      ESP Fit Center  134 is at  -0.203994 -0.636908 -1.917263
      ESP Fit Center  135 is at   0.203513 -0.636908 -1.917263
      ESP Fit Center  136 is at  -0.000241 -0.283997 -1.960094
      ESP Fit Center  137 is at   0.773723 -0.180392  1.940109
      ESP Fit Center  138 is at   1.175540 -0.288058  1.940109
      ESP Fit Center  139 is at   0.856258 -0.606583  1.746048
      ESP Fit Center  140 is at   2.594570  2.008396  0.409652
      ESP Fit Center  141 is at   2.660465  2.000501 -0.000038
      ESP Fit Center  142 is at   2.342238  2.261663 -0.000038
      ESP Fit Center  143 is at   1.979175  2.455724 -0.000038
      ESP Fit Center  144 is at   1.585230  2.575226 -0.000038
      ESP Fit Center  145 is at   1.175540  2.615577 -0.000038
      ESP Fit Center  146 is at   0.765851  2.575226 -0.000038
      ESP Fit Center  147 is at   0.371905  2.455724 -0.000038
      ESP Fit Center  148 is at   0.008843  2.261663 -0.000038
      ESP Fit Center  149 is at   2.594570  2.008396 -0.409727
      ESP Fit Center  150 is at   0.856258 -0.606583 -1.746124
      ESP Fit Center  151 is at   0.773723 -0.180392 -1.940185
      ESP Fit Center  152 is at   1.175540 -0.288058 -1.940185
      ESP Fit Center  153 is at   2.788228  0.303540  1.940277
      ESP Fit Center  154 is at   2.386411  0.411206  1.940277
      ESP Fit Center  155 is at   3.474324  0.029031  1.746216
      ESP Fit Center  156 is at   3.248610  0.393570  1.746216
      ESP Fit Center  157 is at   2.906452  0.651956  1.746216
      ESP Fit Center  158 is at   3.871335 -0.392429  1.485054
      ESP Fit Center  159 is at   3.003270  0.958306  1.485054
      ESP Fit Center  160 is at   4.081759 -0.810295  1.166827
      ESP Fit Center  161 is at   4.147240 -1.207075  0.803765
      ESP Fit Center  162 is at   3.805441 -1.885248  0.409819
      ESP Fit Center  163 is at   4.076895 -1.569041  0.409819
      ESP Fit Center  164 is at   4.279141 -1.204664  0.409819
      ESP Fit Center  165 is at   1.219713 -2.138515  0.000130
      ESP Fit Center  166 is at   1.582775 -2.332576  0.000130
      ESP Fit Center  167 is at   1.976721 -2.452078  0.000130
      ESP Fit Center  168 is at   2.386411 -2.492429  0.000130
      ESP Fit Center  169 is at   2.796100 -2.452078  0.000130
      ESP Fit Center  170 is at   3.190046 -2.332576  0.000130
      ESP Fit Center  171 is at   3.553108 -2.138515  0.000130
      ESP Fit Center  172 is at   3.871335 -1.877353  0.000130
      ESP Fit Center  173 is at   4.132497 -1.559126  0.000130
      ESP Fit Center  174 is at   4.326558 -1.196064  0.000130
      ESP Fit Center  175 is at   3.805441 -1.885248 -0.409560
      ESP Fit Center  176 is at   4.076895 -1.569041 -0.409560
      ESP Fit Center  177 is at   4.279141 -1.204664 -0.409560
      ESP Fit Center  178 is at   4.147240 -1.207075 -0.803505
      ESP Fit Center  179 is at   4.081759 -0.810295 -1.166568
      ESP Fit Center  180 is at   3.871335 -0.392429 -1.484795
      ESP Fit Center  181 is at   3.003270  0.958306 -1.484795
      ESP Fit Center  182 is at   3.474324  0.029031 -1.745956
      ESP Fit Center  183 is at   3.248610  0.393570 -1.745956
      ESP Fit Center  184 is at   2.906452  0.651956 -1.745956
      ESP Fit Center  185 is at   2.788228  0.303540 -1.940017
      ESP Fit Center  186 is at   2.386411  0.411206 -1.940017
      ESP Fit Center  187 is at  -3.527968  0.568976  1.622502
      ESP Fit Center  188 is at  -3.745376  0.192414  1.622502
      ESP Fit Center  189 is at  -3.310560  1.032414  1.454670
      ESP Fit Center  190 is at  -3.730560  0.919876  1.454670
      ESP Fit Center  191 is at  -4.038021  0.612414  1.454670
      ESP Fit Center  192 is at  -4.150560  0.192414  1.454670
      ESP Fit Center  193 is at  -4.038021 -0.227586  1.454670
      ESP Fit Center  194 is at  -3.200951  1.375286  1.187686
      ESP Fit Center  195 is at  -3.635655  1.335005  1.187686
      ESP Fit Center  196 is at  -4.026453  1.140410  1.187686
      ESP Fit Center  197 is at  -4.320566  0.817784  1.187686
      ESP Fit Center  198 is at  -4.478272  0.410697  1.187686
      ESP Fit Center  199 is at  -4.478272 -0.025869  1.187686
      ESP Fit Center  200 is at  -4.320566 -0.432955  1.187686
      ESP Fit Center  201 is at  -3.201834  1.643269  0.839747
      ESP Fit Center  202 is at  -3.634311  1.610859  0.839747
      ESP Fit Center  203 is at  -4.038021  1.452414  0.839747
      ESP Fit Center  204 is at  -4.377094  1.182013  0.839747
      ESP Fit Center  205 is at  -4.621400  0.823681  0.839747
      ESP Fit Center  206 is at  -4.749232  0.409259  0.839747
      ESP Fit Center  207 is at  -4.749232 -0.024431  0.839747
      ESP Fit Center  208 is at  -4.621400 -0.438853  0.839747
      ESP Fit Center  209 is at  -4.377094 -0.797185  0.839747
      ESP Fit Center  210 is at  -2.890560  1.759876  0.434563
      ESP Fit Center  211 is at  -3.310560  1.815170  0.434563
      ESP Fit Center  212 is at  -3.730560  1.759876  0.434563
      ESP Fit Center  213 is at  -4.121938  1.597762  0.434563
      ESP Fit Center  214 is at  -4.458021  1.339876  0.434563
      ESP Fit Center  215 is at  -4.715907  1.003792  0.434563
      ESP Fit Center  216 is at  -4.878021  0.612414  0.434563
      ESP Fit Center  217 is at  -4.933315  0.192414  0.434563
      ESP Fit Center  218 is at  -4.878021 -0.227586  0.434563
      ESP Fit Center  219 is at  -4.715907 -0.618964  0.434563
      ESP Fit Center  220 is at  -4.458021 -0.955047  0.434563
      ESP Fit Center  221 is at  -3.205072  1.869099 -0.000253
      ESP Fit Center  222 is at  -3.625361  1.842657 -0.000253
      ESP Fit Center  223 is at  -4.025869  1.712524 -0.000253
      ESP Fit Center  224 is at  -4.381432  1.486876 -0.000253
      ESP Fit Center  225 is at  -4.669709  1.179893 -0.000253
      ESP Fit Center  226 is at  -4.872585  0.810863 -0.000253
      ESP Fit Center  227 is at  -4.977313  0.402974 -0.000253
      ESP Fit Center  228 is at  -4.977313 -0.018146 -0.000253
      ESP Fit Center  229 is at  -4.872585 -0.426035 -0.000253
      ESP Fit Center  230 is at  -4.669709 -0.795065 -0.000253
      ESP Fit Center  231 is at  -4.381432 -1.102048 -0.000253
      ESP Fit Center  232 is at  -2.890560  1.759876 -0.435069
      ESP Fit Center  233 is at  -3.310560  1.815170 -0.435069
      ESP Fit Center  234 is at  -3.730560  1.759876 -0.435069
      ESP Fit Center  235 is at  -4.121938  1.597762 -0.435069
      ESP Fit Center  236 is at  -4.458021  1.339876 -0.435069
      ESP Fit Center  237 is at  -4.715907  1.003792 -0.435069
      ESP Fit Center  238 is at  -4.878021  0.612414 -0.435069
      ESP Fit Center  239 is at  -4.933315  0.192414 -0.435069
      ESP Fit Center  240 is at  -4.878021 -0.227586 -0.435069
      ESP Fit Center  241 is at  -4.715907 -0.618964 -0.435069
      ESP Fit Center  242 is at  -4.458021 -0.955047 -0.435069
      ESP Fit Center  243 is at  -3.201834  1.643269 -0.840253
      ESP Fit Center  244 is at  -3.634311  1.610859 -0.840253
      ESP Fit Center  245 is at  -4.038021  1.452414 -0.840253
      ESP Fit Center  246 is at  -4.377094  1.182013 -0.840253
      ESP Fit Center  247 is at  -4.621400  0.823681 -0.840253
      ESP Fit Center  248 is at  -4.749232  0.409259 -0.840253
      ESP Fit Center  249 is at  -4.749232 -0.024431 -0.840253
      ESP Fit Center  250 is at  -4.621400 -0.438853 -0.840253
      ESP Fit Center  251 is at  -4.377094 -0.797185 -0.840253
      ESP Fit Center  252 is at  -3.200951  1.375286 -1.188193
      ESP Fit Center  253 is at  -3.635655  1.335005 -1.188193
      ESP Fit Center  254 is at  -4.026453  1.140410 -1.188193
      ESP Fit Center  255 is at  -4.320566  0.817784 -1.188193
      ESP Fit Center  256 is at  -4.478272  0.410697 -1.188193
      ESP Fit Center  257 is at  -4.478272 -0.025869 -1.188193
      ESP Fit Center  258 is at  -4.320566 -0.432955 -1.188193
      ESP Fit Center  259 is at  -3.310560  1.032414 -1.455176
      ESP Fit Center  260 is at  -3.730560  0.919876 -1.455176
      ESP Fit Center  261 is at  -4.038021  0.612414 -1.455176
      ESP Fit Center  262 is at  -4.150560  0.192414 -1.455176
      ESP Fit Center  263 is at  -4.038021 -0.227586 -1.455176
      ESP Fit Center  264 is at  -3.527968  0.568976 -1.623009
      ESP Fit Center  265 is at  -3.745376  0.192414 -1.623009
      ESP Fit Center  266 is at  -2.272132 -2.495694 -0.038961
      ESP Fit Center  267 is at  -3.528320 -2.192301 -0.444145
      ESP Fit Center  268 is at  -3.192236 -2.450187 -0.444145
      ESP Fit Center  269 is at  -2.800858 -2.612301 -0.444145
      ESP Fit Center  270 is at  -2.380858 -2.667595 -0.444145
      ESP Fit Center  271 is at  -1.960858 -2.612301 -0.444145
      ESP Fit Center  272 is at  -1.569481 -2.450187 -0.444145
      ESP Fit Center  273 is at  -1.233397 -2.192301 -0.444145
      ESP Fit Center  274 is at  -3.942883 -1.663289 -0.878961
      ESP Fit Center  275 is at  -3.740007 -2.032319 -0.878961
      ESP Fit Center  276 is at  -3.451731 -2.339302 -0.878961
      ESP Fit Center  277 is at  -3.096168 -2.564949 -0.878961
      ESP Fit Center  278 is at  -2.695659 -2.695082 -0.878961
      ESP Fit Center  279 is at  -2.275370 -2.721524 -0.878961
      ESP Fit Center  280 is at  -1.861710 -2.642614 -0.878961
      ESP Fit Center  281 is at  -1.480669 -2.463310 -0.878961
      ESP Fit Center  282 is at  -1.156191 -2.194879 -0.878961
      ESP Fit Center  283 is at  -0.908663 -1.854186 -0.878961
      ESP Fit Center  284 is at  -4.003614 -1.044839 -1.313777
      ESP Fit Center  285 is at  -3.948320 -1.464839 -1.313777
      ESP Fit Center  286 is at  -3.786206 -1.856217 -1.313777
      ESP Fit Center  287 is at  -3.528320 -2.192301 -1.313777
      ESP Fit Center  288 is at  -3.192236 -2.450187 -1.313777
      ESP Fit Center  289 is at  -2.800858 -2.612301 -1.313777
      ESP Fit Center  290 is at  -2.380858 -2.667595 -1.313777
      ESP Fit Center  291 is at  -1.960858 -2.612301 -1.313777
      ESP Fit Center  292 is at  -1.569481 -2.450187 -1.313777
      ESP Fit Center  293 is at  -1.233397 -2.192301 -1.313777
      ESP Fit Center  294 is at  -0.975511 -1.856217 -1.313777
      ESP Fit Center  295 is at  -0.925936 -1.044839 -1.718961
      ESP Fit Center  296 is at  -3.691699 -0.413572 -1.718961
      ESP Fit Center  297 is at  -3.819531 -0.827994 -1.718961
      ESP Fit Center  298 is at  -3.819531 -1.261684 -1.718961
      ESP Fit Center  299 is at  -3.691699 -1.676107 -1.718961
      ESP Fit Center  300 is at  -3.447392 -2.034438 -1.718961
      ESP Fit Center  301 is at  -3.108320 -2.304839 -1.718961
      ESP Fit Center  302 is at  -2.704609 -2.463284 -1.718961
      ESP Fit Center  303 is at  -2.272132 -2.495694 -1.718961
      ESP Fit Center  304 is at  -1.849316 -2.399189 -1.718961
      ESP Fit Center  305 is at  -1.473729 -2.182344 -1.718961
      ESP Fit Center  306 is at  -1.178745 -1.864427 -1.718961
      ESP Fit Center  307 is at  -0.990574 -1.473685 -1.718961
      ESP Fit Center  308 is at  -1.192919 -1.044839 -2.066901
      ESP Fit Center  309 is at  -1.273138 -0.615706 -2.066901
      ESP Fit Center  310 is at  -1.502961 -0.244530 -2.066901
      ESP Fit Center  311 is at  -1.851348  0.018560 -2.066901
      ESP Fit Center  312 is at  -2.271249  0.138032 -2.066901
      ESP Fit Center  313 is at  -2.705954  0.097751 -2.066901
      ESP Fit Center  314 is at  -3.096752 -0.096843 -2.066901
      ESP Fit Center  315 is at  -3.390865 -0.419470 -2.066901
      ESP Fit Center  316 is at  -3.548571 -0.826556 -2.066901
      ESP Fit Center  317 is at  -3.548571 -1.263123 -2.066901
      ESP Fit Center  318 is at  -3.390865 -1.670209 -2.066901
      ESP Fit Center  319 is at  -3.096752 -1.992835 -2.066901
      ESP Fit Center  320 is at  -2.705954 -2.187430 -2.066901
      ESP Fit Center  321 is at  -2.271249 -2.227711 -2.066901
      ESP Fit Center  322 is at  -1.851348 -2.108239 -2.066901
      ESP Fit Center  323 is at  -1.502961 -1.845149 -2.066901
      ESP Fit Center  324 is at  -1.273138 -1.473973 -2.066901
      ESP Fit Center  325 is at  -1.540858 -1.044839 -2.333884
      ESP Fit Center  326 is at  -1.653397 -0.624839 -2.333884
      ESP Fit Center  327 is at  -1.960858 -0.317378 -2.333884
      ESP Fit Center  328 is at  -2.380858 -0.204839 -2.333884
      ESP Fit Center  329 is at  -2.800858 -0.317378 -2.333884
      ESP Fit Center  330 is at  -3.108320 -0.624839 -2.333884
      ESP Fit Center  331 is at  -3.220858 -1.044839 -2.333884
      ESP Fit Center  332 is at  -3.108320 -1.464839 -2.333884
      ESP Fit Center  333 is at  -2.800858 -1.772301 -2.333884
      ESP Fit Center  334 is at  -2.380858 -1.884839 -2.333884
      ESP Fit Center  335 is at  -1.960858 -1.772301 -2.333884
      ESP Fit Center  336 is at  -1.653397 -1.464839 -2.333884
      ESP Fit Center  337 is at  -1.946042 -1.044839 -2.501717
      ESP Fit Center  338 is at  -2.163450 -0.668278 -2.501717
      ESP Fit Center  339 is at  -2.598266 -0.668278 -2.501717
      ESP Fit Center  340 is at  -2.815674 -1.044839 -2.501717
      ESP Fit Center  341 is at  -2.598266 -1.421401 -2.501717
      ESP Fit Center  342 is at  -2.163450 -1.421401 -2.501717
      ESP Fit Center  343 is at  -2.380858 -1.044839 -2.558961
      ESP Fit Center  344 is at  -2.381321 -1.043723  2.559934
      ESP Fit Center  345 is at  -1.946505 -1.043723  2.502689
      ESP Fit Center  346 is at  -2.163913 -0.667161  2.502689
      ESP Fit Center  347 is at  -2.598729 -0.667161  2.502689
      ESP Fit Center  348 is at  -2.816137 -1.043723  2.502689
      ESP Fit Center  349 is at  -2.598729 -1.420284  2.502689
      ESP Fit Center  350 is at  -2.163913 -1.420284  2.502689
      ESP Fit Center  351 is at  -1.541321 -1.043723  2.334857
      ESP Fit Center  352 is at  -1.653860 -0.623723  2.334857
      ESP Fit Center  353 is at  -1.961321 -0.316261  2.334857
      ESP Fit Center  354 is at  -2.381321 -0.203723  2.334857
      ESP Fit Center  355 is at  -2.801321 -0.316261  2.334857
      ESP Fit Center  356 is at  -3.108783 -0.623723  2.334857
      ESP Fit Center  357 is at  -3.221321 -1.043723  2.334857
      ESP Fit Center  358 is at  -3.108783 -1.463723  2.334857
      ESP Fit Center  359 is at  -2.801321 -1.771184  2.334857
      ESP Fit Center  360 is at  -2.381321 -1.883723  2.334857
      ESP Fit Center  361 is at  -1.961321 -1.771184  2.334857
      ESP Fit Center  362 is at  -1.653860 -1.463723  2.334857
      ESP Fit Center  363 is at  -1.193382 -1.043723  2.067873
      ESP Fit Center  364 is at  -1.273601 -0.614590  2.067873
      ESP Fit Center  365 is at  -1.503424 -0.243413  2.067873
      ESP Fit Center  366 is at  -1.851811  0.019677  2.067873
      ESP Fit Center  367 is at  -2.271712  0.139149  2.067873
      ESP Fit Center  368 is at  -2.706416  0.098868  2.067873
      ESP Fit Center  369 is at  -3.097215 -0.095727  2.067873
      ESP Fit Center  370 is at  -3.391328 -0.418353  2.067873
      ESP Fit Center  371 is at  -3.549034 -0.825439  2.067873
      ESP Fit Center  372 is at  -3.549034 -1.262006  2.067873
      ESP Fit Center  373 is at  -3.391328 -1.669092  2.067873
      ESP Fit Center  374 is at  -3.097215 -1.991719  2.067873
      ESP Fit Center  375 is at  -2.706416 -2.186313  2.067873
      ESP Fit Center  376 is at  -2.271712 -2.226595  2.067873
      ESP Fit Center  377 is at  -1.851811 -2.107122  2.067873
      ESP Fit Center  378 is at  -1.503424 -1.844032  2.067873
      ESP Fit Center  379 is at  -1.273601 -1.472856  2.067873
      ESP Fit Center  380 is at  -0.926399 -1.043723  1.719934
      ESP Fit Center  381 is at  -3.692161 -0.412455  1.719934
      ESP Fit Center  382 is at  -3.819994 -0.826878  1.719934
      ESP Fit Center  383 is at  -3.819994 -1.260568  1.719934
      ESP Fit Center  384 is at  -3.692161 -1.674990  1.719934
      ESP Fit Center  385 is at  -3.447855 -2.033321  1.719934
      ESP Fit Center  386 is at  -3.108783 -2.303723  1.719934
      ESP Fit Center  387 is at  -2.705072 -2.462167  1.719934
      ESP Fit Center  388 is at  -2.272595 -2.494577  1.719934
      ESP Fit Center  389 is at  -1.849778 -2.398072  1.719934
      ESP Fit Center  390 is at  -1.474192 -2.181227  1.719934
      ESP Fit Center  391 is at  -1.179208 -1.863310  1.719934
      ESP Fit Center  392 is at  -0.991037 -1.472569  1.719934
      ESP Fit Center  393 is at  -4.004077 -1.043723  1.314750
      ESP Fit Center  394 is at  -3.948783 -1.463723  1.314750
      ESP Fit Center  395 is at  -3.786669 -1.855100  1.314750
      ESP Fit Center  396 is at  -3.528783 -2.191184  1.314750
      ESP Fit Center  397 is at  -3.192699 -2.449070  1.314750
      ESP Fit Center  398 is at  -2.801321 -2.611184  1.314750
      ESP Fit Center  399 is at  -2.381321 -2.666478  1.314750
      ESP Fit Center  400 is at  -1.961321 -2.611184  1.314750
      ESP Fit Center  401 is at  -1.569944 -2.449070  1.314750
      ESP Fit Center  402 is at  -1.233860 -2.191184  1.314750
      ESP Fit Center  403 is at  -0.975974 -1.855100  1.314750
      ESP Fit Center  404 is at  -3.943346 -1.662172  0.879934
      ESP Fit Center  405 is at  -3.740470 -2.031202  0.879934
      ESP Fit Center  406 is at  -3.452194 -2.338185  0.879934
      ESP Fit Center  407 is at  -3.096631 -2.563832  0.879934
      ESP Fit Center  408 is at  -2.696122 -2.693965  0.879934
      ESP Fit Center  409 is at  -2.275833 -2.720408  0.879934
      ESP Fit Center  410 is at  -1.862173 -2.641498  0.879934
      ESP Fit Center  411 is at  -1.481132 -2.462194  0.879934
      ESP Fit Center  412 is at  -1.156654 -2.193762  0.879934
      ESP Fit Center  413 is at  -0.909126 -1.853069  0.879934
      ESP Fit Center  414 is at  -3.528783 -2.191184  0.445118
      ESP Fit Center  415 is at  -3.192699 -2.449070  0.445118
      ESP Fit Center  416 is at  -2.801321 -2.611184  0.445118
      ESP Fit Center  417 is at  -2.381321 -2.666478  0.445118
      ESP Fit Center  418 is at  -1.961321 -2.611184  0.445118
      ESP Fit Center  419 is at  -1.569944 -2.449070  0.445118
      ESP Fit Center  420 is at  -1.233860 -2.191184  0.445118
      ESP Fit Center  421 is at  -2.272595 -2.494577  0.039934
      ESP Fit Center  422 is at  -1.169131  1.148392  2.572055
      ESP Fit Center  423 is at  -0.734315  1.148392  2.514810
      ESP Fit Center  424 is at  -0.951723  1.524954  2.514810
      ESP Fit Center  425 is at  -1.386539  1.524954  2.514810
      ESP Fit Center  426 is at  -1.603947  1.148392  2.514810
      ESP Fit Center  427 is at  -1.386539  0.771831  2.514810
      ESP Fit Center  428 is at  -0.951723  0.771831  2.514810
      ESP Fit Center  429 is at  -0.329131  1.148392  2.346977
      ESP Fit Center  430 is at  -0.441670  1.568392  2.346977
      ESP Fit Center  431 is at  -0.749131  1.875854  2.346977
      ESP Fit Center  432 is at  -1.169131  1.988392  2.346977
      ESP Fit Center  433 is at  -1.589131  1.875854  2.346977
      ESP Fit Center  434 is at  -1.896593  1.568392  2.346977
      ESP Fit Center  435 is at  -2.009131  1.148392  2.346977
      ESP Fit Center  436 is at  -1.896593  0.728392  2.346977
      ESP Fit Center  437 is at  -1.589131  0.420931  2.346977
      ESP Fit Center  438 is at  -1.169131  0.308392  2.346977
      ESP Fit Center  439 is at  -0.749131  0.420931  2.346977
      ESP Fit Center  440 is at  -0.441670  0.728392  2.346977
      ESP Fit Center  441 is at  -0.061411  1.577526  2.079994
      ESP Fit Center  442 is at  -0.291234  1.948702  2.079994
      ESP Fit Center  443 is at  -0.639621  2.211792  2.079994
      ESP Fit Center  444 is at  -1.059522  2.331264  2.079994
      ESP Fit Center  445 is at  -1.494226  2.290983  2.079994
      ESP Fit Center  446 is at  -1.885025  2.096388  2.079994
      ESP Fit Center  447 is at  -2.179138  1.773762  2.079994
      ESP Fit Center  448 is at  -2.336844  1.366676  2.079994
      ESP Fit Center  449 is at  -2.336844  0.930109  2.079994
      ESP Fit Center  450 is at  -2.179138  0.523023  2.079994
      ESP Fit Center  451 is at  -1.885025  0.200396  2.079994
      ESP Fit Center  452 is at  -1.494226  0.005802  2.079994
      ESP Fit Center  453 is at  -1.059522 -0.034480  2.079994
      ESP Fit Center  454 is at  -0.639621  0.084993  2.079994
      ESP Fit Center  455 is at  -0.291234  0.348083  2.079994
      ESP Fit Center  456 is at  -0.061411  0.719259  2.079994
      ESP Fit Center  457 is at  -0.262002  2.285897  1.732055
      ESP Fit Center  458 is at  -0.637588  2.502742  1.732055
      ESP Fit Center  459 is at  -1.060405  2.599247  1.732055
      ESP Fit Center  460 is at  -1.492882  2.566837  1.732055
      ESP Fit Center  461 is at  -1.896593  2.408392  1.732055
      ESP Fit Center  462 is at  -2.235665  2.137991  1.732055
      ESP Fit Center  463 is at  -2.479971  1.779660  1.732055
      ESP Fit Center  464 is at  -2.607804  1.365237  1.732055
      ESP Fit Center  465 is at  -2.607804  0.931547  1.732055
      ESP Fit Center  466 is at  -0.021670  2.295854  1.326871
      ESP Fit Center  467 is at  -0.357754  2.553740  1.326871
      ESP Fit Center  468 is at  -0.749131  2.715854  1.326871
      ESP Fit Center  469 is at  -1.169131  2.771148  1.326871
      ESP Fit Center  470 is at  -1.589131  2.715854  1.326871
      ESP Fit Center  471 is at  -1.980509  2.553740  1.326871
      ESP Fit Center  472 is at  -2.316593  2.295854  1.326871
      ESP Fit Center  473 is at  -2.574479  1.959770  1.326871
      ESP Fit Center  474 is at  -2.736593  1.568392  1.326871
      ESP Fit Center  475 is at  -0.268942  2.566863  0.892055
      ESP Fit Center  476 is at  -0.649983  2.746167  0.892055
      ESP Fit Center  477 is at  -1.063643  2.825077  0.892055
      ESP Fit Center  478 is at  -1.483932  2.798635  0.892055
      ESP Fit Center  479 is at  -1.884441  2.668502  0.892055
      ESP Fit Center  480 is at  -2.240004  2.442855  0.892055
      ESP Fit Center  481 is at  -2.528280  2.135872  0.892055
      ESP Fit Center  482 is at  -2.731156  1.766842  0.892055
      ESP Fit Center  483 is at  -0.021670  2.295854  0.457239
      ESP Fit Center  484 is at  -0.357754  2.553740  0.457239
      ESP Fit Center  485 is at  -0.749131  2.715854  0.457239
      ESP Fit Center  486 is at  -1.169131  2.771148  0.457239
      ESP Fit Center  487 is at  -1.589131  2.715854  0.457239
      ESP Fit Center  488 is at  -1.980509  2.553740  0.457239
      ESP Fit Center  489 is at  -2.316593  2.295854  0.457239
      ESP Fit Center  490 is at  -0.021439  2.296885 -0.456321
      ESP Fit Center  491 is at  -0.357523  2.554771 -0.456321
      ESP Fit Center  492 is at  -0.748900  2.716885 -0.456321
      ESP Fit Center  493 is at  -1.168900  2.772179 -0.456321
      ESP Fit Center  494 is at  -1.588900  2.716885 -0.456321
      ESP Fit Center  495 is at  -1.980278  2.554771 -0.456321
      ESP Fit Center  496 is at  -2.316362  2.296885 -0.456321
      ESP Fit Center  497 is at  -0.268711  2.567894 -0.891137
      ESP Fit Center  498 is at  -0.649752  2.747198 -0.891137
      ESP Fit Center  499 is at  -1.063412  2.826108 -0.891137
      ESP Fit Center  500 is at  -1.483701  2.799666 -0.891137
      ESP Fit Center  501 is at  -1.884210  2.669533 -0.891137
      ESP Fit Center  502 is at  -2.239773  2.443886 -0.891137
      ESP Fit Center  503 is at  -2.528049  2.136902 -0.891137
      ESP Fit Center  504 is at  -2.730925  1.767873 -0.891137
      ESP Fit Center  505 is at  -0.021439  2.296885 -1.325953
      ESP Fit Center  506 is at  -0.357523  2.554771 -1.325953
      ESP Fit Center  507 is at  -0.748900  2.716885 -1.325953
      ESP Fit Center  508 is at  -1.168900  2.772179 -1.325953
      ESP Fit Center  509 is at  -1.588900  2.716885 -1.325953
      ESP Fit Center  510 is at  -1.980278  2.554771 -1.325953
      ESP Fit Center  511 is at  -2.316362  2.296885 -1.325953
      ESP Fit Center  512 is at  -2.574248  1.960801 -1.325953
      ESP Fit Center  513 is at  -2.736362  1.569423 -1.325953
      ESP Fit Center  514 is at  -0.261771  2.286928 -1.731137
      ESP Fit Center  515 is at  -0.637358  2.503773 -1.731137
      ESP Fit Center  516 is at  -1.060174  2.600278 -1.731137
      ESP Fit Center  517 is at  -1.492651  2.567868 -1.731137
      ESP Fit Center  518 is at  -1.896362  2.409423 -1.731137
      ESP Fit Center  519 is at  -2.235434  2.139022 -1.731137
      ESP Fit Center  520 is at  -2.479741  1.780691 -1.731137
      ESP Fit Center  521 is at  -2.607573  1.366268 -1.731137
      ESP Fit Center  522 is at  -2.607573  0.932578 -1.731137
      ESP Fit Center  523 is at  -0.061180  1.578556 -2.079076
      ESP Fit Center  524 is at  -0.291003  1.949733 -2.079076
      ESP Fit Center  525 is at  -0.639390  2.212823 -2.079076
      ESP Fit Center  526 is at  -1.059291  2.332295 -2.079076
      ESP Fit Center  527 is at  -1.493996  2.292014 -2.079076
      ESP Fit Center  528 is at  -1.884794  2.097419 -2.079076
      ESP Fit Center  529 is at  -2.178907  1.774793 -2.079076
      ESP Fit Center  530 is at  -2.336613  1.367707 -2.079076
      ESP Fit Center  531 is at  -2.336613  0.931140 -2.079076
      ESP Fit Center  532 is at  -2.178907  0.524054 -2.079076
      ESP Fit Center  533 is at  -1.884794  0.201427 -2.079076
      ESP Fit Center  534 is at  -1.493996  0.006833 -2.079076
      ESP Fit Center  535 is at  -1.059291 -0.033449 -2.079076
      ESP Fit Center  536 is at  -0.639390  0.086024 -2.079076
      ESP Fit Center  537 is at  -0.291003  0.349114 -2.079076
      ESP Fit Center  538 is at  -0.061180  0.720290 -2.079076
      ESP Fit Center  539 is at  -0.328900  1.149423 -2.346060
      ESP Fit Center  540 is at  -0.441439  1.569423 -2.346060
      ESP Fit Center  541 is at  -0.748900  1.876885 -2.346060
      ESP Fit Center  542 is at  -1.168900  1.989423 -2.346060
      ESP Fit Center  543 is at  -1.588900  1.876885 -2.346060
      ESP Fit Center  544 is at  -1.896362  1.569423 -2.346060
      ESP Fit Center  545 is at  -2.008900  1.149423 -2.346060
      ESP Fit Center  546 is at  -1.896362  0.729423 -2.346060
      ESP Fit Center  547 is at  -1.588900  0.421962 -2.346060
      ESP Fit Center  548 is at  -1.168900  0.309423 -2.346060
      ESP Fit Center  549 is at  -0.748900  0.421962 -2.346060
      ESP Fit Center  550 is at  -0.441439  0.729423 -2.346060
      ESP Fit Center  551 is at  -0.734084  1.149423 -2.513892
      ESP Fit Center  552 is at  -0.951492  1.525985 -2.513892
      ESP Fit Center  553 is at  -1.386308  1.525985 -2.513892
      ESP Fit Center  554 is at  -1.603716  1.149423 -2.513892
      ESP Fit Center  555 is at  -1.386308  0.772862 -2.513892
      ESP Fit Center  556 is at  -0.951492  0.772862 -2.513892
      ESP Fit Center  557 is at  -1.168900  1.149423 -2.571137
      ESP Fit Center  558 is at   2.316762  2.295301 -0.456151
      ESP Fit Center  559 is at   1.980678  2.553187 -0.456151
      ESP Fit Center  560 is at   1.589300  2.715301 -0.456151
      ESP Fit Center  561 is at   1.169300  2.770595 -0.456151
      ESP Fit Center  562 is at   0.749300  2.715301 -0.456151
      ESP Fit Center  563 is at   0.357923  2.553187 -0.456151
      ESP Fit Center  564 is at   0.021839  2.295301 -0.456151
      ESP Fit Center  565 is at   2.796520  1.565639 -0.890967
      ESP Fit Center  566 is at   2.641496  1.957186 -0.890967
      ESP Fit Center  567 is at   2.393968  2.297879 -0.890967
      ESP Fit Center  568 is at   2.069489  2.566310 -0.890967
      ESP Fit Center  569 is at   1.688449  2.745614 -0.890967
      ESP Fit Center  570 is at   1.274788  2.824524 -0.890967
      ESP Fit Center  571 is at   0.854500  2.798082 -0.890967
      ESP Fit Center  572 is at   0.453991  2.667949 -0.890967
      ESP Fit Center  573 is at   0.098428  2.442302 -0.890967
      ESP Fit Center  574 is at   2.736762  1.567840 -1.325783
      ESP Fit Center  575 is at   2.574648  1.959217 -1.325783
      ESP Fit Center  576 is at   2.316762  2.295301 -1.325783
      ESP Fit Center  577 is at   1.980678  2.553187 -1.325783
      ESP Fit Center  578 is at   1.589300  2.715301 -1.325783
      ESP Fit Center  579 is at   1.169300  2.770595 -1.325783
      ESP Fit Center  580 is at   0.749300  2.715301 -1.325783
      ESP Fit Center  581 is at   0.357923  2.553187 -1.325783
      ESP Fit Center  582 is at   0.021839  2.295301 -1.325783
      ESP Fit Center  583 is at   2.624223  1.147840 -1.730967
      ESP Fit Center  584 is at   2.559585  1.576685 -1.730967
      ESP Fit Center  585 is at   2.371414  1.967427 -1.730967
      ESP Fit Center  586 is at   2.076430  2.285344 -1.730967
      ESP Fit Center  587 is at   1.700843  2.502189 -1.730967
      ESP Fit Center  588 is at   1.278027  2.598694 -1.730967
      ESP Fit Center  589 is at   0.845550  2.566284 -1.730967
      ESP Fit Center  590 is at   0.441839  2.407840 -1.730967
      ESP Fit Center  591 is at   0.102767  2.137438 -1.730967
      ESP Fit Center  592 is at   2.357240  1.147840 -2.078906
      ESP Fit Center  593 is at   2.277021  1.576973 -2.078906
      ESP Fit Center  594 is at   2.047198  1.948149 -2.078906
      ESP Fit Center  595 is at   1.698811  2.211239 -2.078906
      ESP Fit Center  596 is at   1.278910  2.330711 -2.078906
      ESP Fit Center  597 is at   0.844205  2.290430 -2.078906
      ESP Fit Center  598 is at   0.453407  2.095836 -2.078906
      ESP Fit Center  599 is at   0.159294  1.773209 -2.078906
      ESP Fit Center  600 is at   0.001588  1.366123 -2.078906
      ESP Fit Center  601 is at   0.001588  0.929556 -2.078906
      ESP Fit Center  602 is at   0.159294  0.522470 -2.078906
      ESP Fit Center  603 is at   0.453407  0.199843 -2.078906
      ESP Fit Center  604 is at   0.844205  0.005249 -2.078906
      ESP Fit Center  605 is at   1.278910 -0.035032 -2.078906
      ESP Fit Center  606 is at   1.698811  0.084440 -2.078906
      ESP Fit Center  607 is at   2.047198  0.347530 -2.078906
      ESP Fit Center  608 is at   2.277021  0.718706 -2.078906
      ESP Fit Center  609 is at   2.009300  1.147840 -2.345890
      ESP Fit Center  610 is at   1.896762  1.567840 -2.345890
      ESP Fit Center  611 is at   1.589300  1.875301 -2.345890
      ESP Fit Center  612 is at   1.169300  1.987840 -2.345890
      ESP Fit Center  613 is at   0.749300  1.875301 -2.345890
      ESP Fit Center  614 is at   0.441839  1.567840 -2.345890
      ESP Fit Center  615 is at   0.329300  1.147840 -2.345890
      ESP Fit Center  616 is at   0.441839  0.727840 -2.345890
      ESP Fit Center  617 is at   0.749300  0.420378 -2.345890
      ESP Fit Center  618 is at   1.169300  0.307840 -2.345890
      ESP Fit Center  619 is at   1.589300  0.420378 -2.345890
      ESP Fit Center  620 is at   1.896762  0.727840 -2.345890
      ESP Fit Center  621 is at   1.604116  1.147840 -2.513722
      ESP Fit Center  622 is at   1.386708  1.524401 -2.513722
      ESP Fit Center  623 is at   0.951892  1.524401 -2.513722
      ESP Fit Center  624 is at   0.734484  1.147840 -2.513722
      ESP Fit Center  625 is at   0.951892  0.771278 -2.513722
      ESP Fit Center  626 is at   1.386708  0.771278 -2.513722
      ESP Fit Center  627 is at   1.169300  1.147840 -2.570967
      ESP Fit Center  628 is at   1.168523  1.148619  2.571032
      ESP Fit Center  629 is at   1.603339  1.148619  2.513787
      ESP Fit Center  630 is at   1.385931  1.525181  2.513787
      ESP Fit Center  631 is at   0.951115  1.525181  2.513787
      ESP Fit Center  632 is at   0.733707  1.148619  2.513787
      ESP Fit Center  633 is at   0.951115  0.772057  2.513787
      ESP Fit Center  634 is at   1.385931  0.772057  2.513787
      ESP Fit Center  635 is at   2.008523  1.148619  2.345955
      ESP Fit Center  636 is at   1.895984  1.568619  2.345955
      ESP Fit Center  637 is at   1.588523  1.876080  2.345955
      ESP Fit Center  638 is at   1.168523  1.988619  2.345955
      ESP Fit Center  639 is at   0.748523  1.876080  2.345955
      ESP Fit Center  640 is at   0.441062  1.568619  2.345955
      ESP Fit Center  641 is at   0.328523  1.148619  2.345955
      ESP Fit Center  642 is at   0.441062  0.728619  2.345955
      ESP Fit Center  643 is at   0.748523  0.421158  2.345955
      ESP Fit Center  644 is at   1.168523  0.308619  2.345955
      ESP Fit Center  645 is at   1.588523  0.421158  2.345955
      ESP Fit Center  646 is at   1.895984  0.728619  2.345955
      ESP Fit Center  647 is at   2.356462  1.148619  2.078971
      ESP Fit Center  648 is at   2.276243  1.577752  2.078971
      ESP Fit Center  649 is at   2.046421  1.948929  2.078971
      ESP Fit Center  650 is at   1.698033  2.212019  2.078971
      ESP Fit Center  651 is at   1.278132  2.331491  2.078971
      ESP Fit Center  652 is at   0.843428  2.291210  2.078971
      ESP Fit Center  653 is at   0.452629  2.096615  2.078971
      ESP Fit Center  654 is at   0.158516  1.773989  2.078971
      ESP Fit Center  655 is at   0.000810  1.366902  2.078971
      ESP Fit Center  656 is at   0.000810  0.930336  2.078971
      ESP Fit Center  657 is at   0.158516  0.523250  2.078971
      ESP Fit Center  658 is at   0.452629  0.200623  2.078971
      ESP Fit Center  659 is at   0.843428  0.006029  2.078971
      ESP Fit Center  660 is at   1.278132 -0.034253  2.078971
      ESP Fit Center  661 is at   1.698033  0.085219  2.078971
      ESP Fit Center  662 is at   2.046421  0.348310  2.078971
      ESP Fit Center  663 is at   2.276243  0.719486  2.078971
      ESP Fit Center  664 is at   2.623446  1.148619  1.731032
      ESP Fit Center  665 is at   2.558807  1.577465  1.731032
      ESP Fit Center  666 is at   2.370636  1.968206  1.731032
      ESP Fit Center  667 is at   2.075652  2.286124  1.731032
      ESP Fit Center  668 is at   1.700066  2.502968  1.731032
      ESP Fit Center  669 is at   1.277249  2.599474  1.731032
      ESP Fit Center  670 is at   0.844772  2.567064  1.731032
      ESP Fit Center  671 is at   0.441062  2.408619  1.731032
      ESP Fit Center  672 is at   0.101989  2.138218  1.731032
      ESP Fit Center  673 is at   2.735984  1.568619  1.325848
      ESP Fit Center  674 is at   2.573870  1.959997  1.325848
      ESP Fit Center  675 is at   2.315984  2.296080  1.325848
      ESP Fit Center  676 is at   1.979901  2.553967  1.325848
      ESP Fit Center  677 is at   1.588523  2.716080  1.325848
      ESP Fit Center  678 is at   1.168523  2.771375  1.325848
      ESP Fit Center  679 is at   0.748523  2.716080  1.325848
      ESP Fit Center  680 is at   0.357145  2.553967  1.325848
      ESP Fit Center  681 is at   0.021062  2.296080  1.325848
      ESP Fit Center  682 is at   2.795743  1.566418  0.891032
      ESP Fit Center  683 is at   2.640718  1.957965  0.891032
      ESP Fit Center  684 is at   2.393190  2.298658  0.891032
      ESP Fit Center  685 is at   2.068712  2.567090  0.891032
      ESP Fit Center  686 is at   1.687671  2.746394  0.891032
      ESP Fit Center  687 is at   1.274011  2.825304  0.891032
      ESP Fit Center  688 is at   0.853722  2.798862  0.891032
      ESP Fit Center  689 is at   0.453214  2.668729  0.891032
      ESP Fit Center  690 is at   0.097651  2.443081  0.891032
      ESP Fit Center  691 is at   2.315984  2.296080  0.456216
      ESP Fit Center  692 is at   1.979901  2.553967  0.456216
      ESP Fit Center  693 is at   1.588523  2.716080  0.456216
      ESP Fit Center  694 is at   1.168523  2.771375  0.456216
      ESP Fit Center  695 is at   0.748523  2.716080  0.456216
      ESP Fit Center  696 is at   0.357145  2.553967  0.456216
      ESP Fit Center  697 is at   0.021062  2.296080  0.456216
      ESP Fit Center  698 is at   3.745349  0.191746  1.622562
      ESP Fit Center  699 is at   3.527941  0.568308  1.622562
      ESP Fit Center  700 is at   4.150533  0.191746  1.454730
      ESP Fit Center  701 is at   4.037994  0.611746  1.454730
      ESP Fit Center  702 is at   3.730533  0.919207  1.454730
      ESP Fit Center  703 is at   3.310533  1.031746  1.454730
      ESP Fit Center  704 is at   4.037994 -0.228254  1.454730
      ESP Fit Center  705 is at   4.498472  0.191746  1.187746
      ESP Fit Center  706 is at   4.418253  0.620879  1.187746
      ESP Fit Center  707 is at   4.188430  0.992055  1.187746
      ESP Fit Center  708 is at   3.840043  1.255146  1.187746
      ESP Fit Center  709 is at   3.420142  1.374618  1.187746
      ESP Fit Center  710 is at   2.985438  1.334336  1.187746
      ESP Fit Center  711 is at   4.188430 -0.608564  1.187746
      ESP Fit Center  712 is at   4.418253 -0.237387  1.187746
      ESP Fit Center  713 is at   4.765455  0.191746  0.839807
      ESP Fit Center  714 is at   4.700817  0.620592  0.839807
      ESP Fit Center  715 is at   4.512646  1.011333  0.839807
      ESP Fit Center  716 is at   4.217662  1.329250  0.839807
      ESP Fit Center  717 is at   3.842076  1.546095  0.839807
      ESP Fit Center  718 is at   3.419259  1.642600  0.839807
      ESP Fit Center  719 is at   2.986782  1.610191  0.839807
      ESP Fit Center  720 is at   4.512646 -0.627841  0.839807
      ESP Fit Center  721 is at   4.700817 -0.237100  0.839807
      ESP Fit Center  722 is at   4.933288  0.191746  0.434623
      ESP Fit Center  723 is at   4.877994  0.611746  0.434623
      ESP Fit Center  724 is at   4.715880  1.003124  0.434623
      ESP Fit Center  725 is at   4.457994  1.339207  0.434623
      ESP Fit Center  726 is at   4.121910  1.597093  0.434623
      ESP Fit Center  727 is at   3.730533  1.759207  0.434623
      ESP Fit Center  728 is at   3.310533  1.814501  0.434623
[...]
 3899 Fit       0.003302
 3900 Fit       0.002918
 3901 Fit       0.002209
 3902 Fit       0.001229
 3903 Fit       0.000059
 3904 Fit      -0.001077
 3905 Fit      -0.001461
 3906 Fit      -0.000569
 3907 Fit       0.001026
 3908 Fit       0.002502
 3909 Fit       0.003342
 3910 Fit       0.003771
 3911 Fit       0.003972
 3912 Fit       0.004020
 3913 Fit       0.003922
 3914 Fit       0.003655
 3915 Fit       0.003190
 3916 Fit       0.002513
 3917 Fit       0.001661
 3918 Fit       0.000690
 3919 Fit      -0.000478
 3920 Fit      -0.001955
 3921 Fit      -0.003363
 3922 Fit      -0.003848
 3923 Fit      -0.002918
 3924 Fit      -0.000994
 3925 Fit       0.004287
 3926 Fit       0.004424
 3927 Fit       0.004496
 3928 Fit       0.004520
 3929 Fit       0.004483
 3930 Fit       0.004362
 3931 Fit       0.004125
 3932 Fit       0.003734
 3933 Fit       0.003151
 3934 Fit       0.002374
 3935 Fit       0.005000
 3936 Fit       0.004919
 3937 Fit       0.004893
 3938 Fit       0.004885
 3939 Fit       0.004864
 3940 Fit       0.004804
 3941 Fit       0.004677
 3942 Fit       0.004447
 3943 Fit       0.004060
 3944 Fit       0.003453
 3945 Fit       0.005418
 3946 Fit       0.005232
 3947 Fit       0.005157
 3948 Fit       0.005135
 3949 Fit       0.005132
 3950 Fit       0.005124
 3951 Fit       0.005088
 3952 Fit       0.004999
 3953 Fit       0.004815
 3954 Fit       0.004470
 3955 Fit       0.005513
 3956 Fit       0.005353
 3957 Fit       0.005298
 3958 Fit       0.005300
 3959 Fit       0.005332
 3960 Fit       0.005374
 3961 Fit       0.005407
 3962 Fit       0.005408
 3963 Fit       0.005336
 3964 Fit       0.005746
 3965 Fit       0.005502
 3966 Fit       0.005401
 3967 Fit       0.005390
 3968 Fit       0.005439
 3969 Fit       0.005529
 3970 Fit       0.005646
 3971 Fit       0.005778
 3972 Fit       0.005913
 3973 Fit       0.006027
 3974 Fit       0.005856
 3975 Fit       0.005587
 3976 Fit       0.005465
 3977 Fit       0.005449
 3978 Fit       0.005516
 3979 Fit       0.005648
 3980 Fit       0.005835
 3981 Fit       0.006070
 3982 Fit       0.006354
 3983 Fit       0.005603
 3984 Fit       0.005512
 3985 Fit       0.005543
 3986 Fit       0.005677
 3987 Fit       0.005901
 3988 Fit       0.005603
 3989 Fit       0.005512
 3990 Fit       0.005543
 3991 Fit       0.005677
 3992 Fit       0.005901
 3993 Fit       0.005856
 3994 Fit       0.005587
 3995 Fit       0.005465
 3996 Fit       0.005449
 3997 Fit       0.005516
 3998 Fit       0.005648
 3999 Fit       0.005835
 4000 Fit       0.006070
 4001 Fit       0.006354
 4002 Fit       0.005746
 4003 Fit       0.005502
 4004 Fit       0.005402
 4005 Fit       0.005390
 4006 Fit       0.005439
 4007 Fit       0.005529
 4008 Fit       0.005646
 4009 Fit       0.005779
 4010 Fit       0.005913
 4011 Fit       0.006028
 4012 Fit       0.005514
 4013 Fit       0.005353
 4014 Fit       0.005298
 4015 Fit       0.005300
 4016 Fit       0.005333
 4017 Fit       0.005375
 4018 Fit       0.005408
 4019 Fit       0.005408
 4020 Fit       0.005336
 4021 Fit       0.005418
 4022 Fit       0.005232
 4023 Fit       0.005157
 4024 Fit       0.005135
 4025 Fit       0.005132
 4026 Fit       0.005124
 4027 Fit       0.005088
 4028 Fit       0.004999
 4029 Fit       0.004815
 4030 Fit       0.004471
 4031 Fit       0.005000
 4032 Fit       0.004920
 4033 Fit       0.004894
 4034 Fit       0.004885
 4035 Fit       0.004864
 4036 Fit       0.004804
 4037 Fit       0.004677
 4038 Fit       0.004447
 4039 Fit       0.004061
 4040 Fit       0.003454
 4041 Fit       0.004288
 4042 Fit       0.004424
 4043 Fit       0.004496
 4044 Fit       0.004520
 4045 Fit       0.004483
 4046 Fit       0.004362
 4047 Fit       0.004126
 4048 Fit       0.003735
 4049 Fit       0.003151
 4050 Fit       0.002374
 4051 Fit       0.001027
 4052 Fit       0.002502
 4053 Fit       0.003343
 4054 Fit       0.003771
 4055 Fit       0.003972
 4056 Fit       0.004020
 4057 Fit       0.003922
 4058 Fit       0.003655
 4059 Fit       0.003190
 4060 Fit       0.002513
 4061 Fit       0.001661
 4062 Fit       0.000690
 4063 Fit      -0.000478
 4064 Fit      -0.001955
 4065 Fit      -0.003363
 4066 Fit      -0.003848
 4067 Fit      -0.002918
 4068 Fit      -0.000994
 4069 Fit       0.001006
 4070 Fit       0.002321
 4071 Fit       0.003064
 4072 Fit       0.003356
 4073 Fit       0.003302
 4074 Fit       0.002919
 4075 Fit       0.002209
 4076 Fit       0.001229
 4077 Fit       0.000059
 4078 Fit      -0.001077
 4079 Fit      -0.001461
 4080 Fit      -0.000569
 4081 Fit       0.001216
 4082 Fit       0.002309
 4083 Fit       0.002521
 4084 Fit       0.001874
 4085 Fit       0.000760
 4086 Fit       0.000247
 4087 Fit       0.001529
 4088 Fit       0.005779
 4089 Fit       0.005598
 4090 Fit       0.005514
 4091 Fit       0.005541
 4092 Fit       0.006354
 4093 Fit       0.006070
 4094 Fit       0.005835
 4095 Fit       0.005648
 4096 Fit       0.005516
 4097 Fit       0.005449
 4098 Fit       0.005465
 4099 Fit       0.005587
 4100 Fit       0.005856
 4101 Fit       0.005974
 4102 Fit       0.005847
 4103 Fit       0.005711
 4104 Fit       0.005585
 4105 Fit       0.005480
 4106 Fit       0.005409
 4107 Fit       0.005387
 4108 Fit       0.005438
 4109 Fit       0.005601
 4110 Fit       0.005251
 4111 Fit       0.005385
 4112 Fit       0.005414
 4113 Fit       0.005393
 4114 Fit       0.005353
 4115 Fit       0.005314
 4116 Fit       0.005294
 4117 Fit       0.005316
 4118 Fit       0.005416
 4119 Fit       0.005661
 4120 Fit       0.004206
 4121 Fit       0.004669
 4122 Fit       0.004922
 4123 Fit       0.005052
 4124 Fit       0.005111
 4125 Fit       0.005130
 4126 Fit       0.005133
 4127 Fit       0.005142
 4128 Fit       0.005185
 4129 Fit       0.005305
 4130 Fit       0.003789
 4131 Fit       0.004277
 4132 Fit       0.004578
 4133 Fit       0.004751
 4134 Fit       0.004840
 4135 Fit       0.004877
 4136 Fit       0.004889
 4137 Fit       0.004902
 4138 Fit       0.004950
 4139 Fit       0.002784
 4140 Fit       0.003468
 4141 Fit       0.003952
 4142 Fit       0.004261
 4143 Fit       0.004435
 4144 Fit       0.004511
 4145 Fit       0.004515
 4146 Fit       0.004466
 4147 Fit       0.004367
 4148 Fit       0.004170
 4149 Fit       0.002513
 4150 Fit       0.003190
 4151 Fit       0.003655
 4152 Fit       0.003922
 4153 Fit       0.004020
 4154 Fit       0.003972
 4155 Fit       0.003771
 4156 Fit       0.003342
 4157 Fit       0.002502
 4158 Fit       0.001027
 4159 Fit      -0.000994
 4160 Fit      -0.002918
 4161 Fit      -0.003848
 4162 Fit      -0.003363
 4163 Fit      -0.001955
 4164 Fit      -0.000478
 4165 Fit       0.000690
 4166 Fit       0.001661
 4167 Fit       0.002209
 4168 Fit       0.002919
 4169 Fit       0.003302
 4170 Fit       0.003356
 4171 Fit       0.003064
 4172 Fit       0.002320
 4173 Fit       0.001005
 4174 Fit      -0.000569
 4175 Fit      -0.001461
 4176 Fit      -0.001077
 4177 Fit       0.000059
 4178 Fit       0.001229
 4179 Fit       0.001874
 4180 Fit       0.002520
 4181 Fit       0.002309
 4182 Fit       0.001216
 4183 Fit       0.000247
 4184 Fit       0.000760
 4185 Fit       0.001529
 4186 Fit       0.001529
 4187 Fit       0.001874
 4188 Fit       0.002521
 4189 Fit       0.002309
 4190 Fit       0.001216
 4191 Fit       0.000247
 4192 Fit       0.000760
 4193 Fit       0.002209
 4194 Fit       0.002919
 4195 Fit       0.003302
 4196 Fit       0.003356
 4197 Fit       0.003064
 4198 Fit       0.002320
 4199 Fit       0.001005
 4200 Fit      -0.000569
 4201 Fit      -0.001461
 4202 Fit      -0.001077
 4203 Fit       0.000059
 4204 Fit       0.001229
 4205 Fit       0.002513
 4206 Fit       0.003190
 4207 Fit       0.003655
 4208 Fit       0.003922
 4209 Fit       0.004020
 4210 Fit       0.003972
 4211 Fit       0.003771
 4212 Fit       0.003343
 4213 Fit       0.002502
 4214 Fit       0.001027
 4215 Fit      -0.000994
 4216 Fit      -0.002918
 4217 Fit      -0.003848
 4218 Fit      -0.003363
 4219 Fit      -0.001955
 4220 Fit      -0.000478
 4221 Fit       0.000690
 4222 Fit       0.001661
 4223 Fit       0.002784
 4224 Fit       0.003468
 4225 Fit       0.003952
 4226 Fit       0.004261
 4227 Fit       0.004435
 4228 Fit       0.004511
 4229 Fit       0.004515
 4230 Fit       0.004466
 4231 Fit       0.004367
 4232 Fit       0.004170
 4233 Fit       0.003788
 4234 Fit       0.004277
 4235 Fit       0.004578
 4236 Fit       0.004751
 4237 Fit       0.004840
 4238 Fit       0.004878
 4239 Fit       0.004889
 4240 Fit       0.004902
 4241 Fit       0.004950
 4242 Fit       0.004206
 4243 Fit       0.004668
 4244 Fit       0.004922
 4245 Fit       0.005052
 4246 Fit       0.005111
 4247 Fit       0.005130
 4248 Fit       0.005133
 4249 Fit       0.005142
 4250 Fit       0.005185
 4251 Fit       0.005305
 4252 Fit       0.005251
 4253 Fit       0.005385
 4254 Fit       0.005414
 4255 Fit       0.005393
 4256 Fit       0.005353
 4257 Fit       0.005314
 4258 Fit       0.005294
 4259 Fit       0.005316
 4260 Fit       0.005416
 4261 Fit       0.005661
 4262 Fit       0.005974
 4263 Fit       0.005847
 4264 Fit       0.005711
 4265 Fit       0.005585
 4266 Fit       0.005480
 4267 Fit       0.005409
 4268 Fit       0.005387
 4269 Fit       0.005438
 4270 Fit       0.005601
 4271 Fit       0.006354
 4272 Fit       0.006070
 4273 Fit       0.005835
 4274 Fit       0.005648
 4275 Fit       0.005516
 4276 Fit       0.005449
 4277 Fit       0.005465
 4278 Fit       0.005587
 4279 Fit       0.005855
 4280 Fit       0.005779
 4281 Fit       0.005598
 4282 Fit       0.005514
 4283 Fit       0.005541
 4284 Fit       0.000945
 4285 Fit       0.001689
 4286 Fit       0.002334
 4287 Fit       0.002900
 4288 Fit       0.001295
 4289 Fit       0.002019
 4290 Fit       0.002648
 4291 Fit       0.003197
 4292 Fit       0.003715
 4293 Fit       0.004282
 4294 Fit       0.000500
 4295 Fit       0.001643
 4296 Fit       0.002356
 4297 Fit       0.002974
 4298 Fit       0.003509
 4299 Fit       0.003994
 4300 Fit       0.004490
 4301 Fit       0.005087
 4302 Fit       0.000008
 4303 Fit       0.000848
 4304 Fit       0.001951
 4305 Fit       0.002637
 4306 Fit       0.003234
 4307 Fit       0.003749
 4308 Fit       0.004205
 4309 Fit       0.004641
 4310 Fit       0.005117
 4311 Fit       0.005717
 4312 Fit       0.000355
 4313 Fit       0.001184
 4314 Fit       0.002191
 4315 Fit       0.002877
 4316 Fit       0.003473
 4317 Fit       0.003985
 4318 Fit       0.004433
 4319 Fit       0.004850
 4320 Fit       0.005287
 4321 Fit       0.005813
 4322 Fit       0.006525
 4323 Fit      -0.000305
 4324 Fit       0.000579
 4325 Fit       0.001420
 4326 Fit       0.002342
 4327 Fit       0.003013
 4328 Fit       0.003597
 4329 Fit       0.004101
 4330 Fit       0.004539
 4331 Fit       0.004939
 4332 Fit       0.005341
 4333 Fit       0.005802
 4334 Fit       0.006396
 4335 Fit      -0.000111
 4336 Fit       0.000764
 4337 Fit       0.001588
 4338 Fit       0.002393
 4339 Fit       0.003054
 4340 Fit       0.003631
 4341 Fit       0.004129
 4342 Fit       0.004561
 4343 Fit       0.004954
 4344 Fit       0.005342
 4345 Fit       0.005776
 4346 Fit       0.006322
 4347 Fit      -0.000020
 4348 Fit       0.000843
 4349 Fit       0.001652
 4350 Fit       0.002342
 4351 Fit       0.003013
 4352 Fit       0.003597
 4353 Fit       0.004101
 4354 Fit       0.004539
 4355 Fit       0.004939
 4356 Fit       0.005341
 4357 Fit       0.005802
 4358 Fit       0.006396
 4359 Fit      -0.000110
 4360 Fit       0.000764
 4361 Fit       0.001588
 4362 Fit       0.002191
 4363 Fit       0.002877
 4364 Fit       0.003473
 4365 Fit       0.003985
 4366 Fit       0.004433
 4367 Fit       0.004851
 4368 Fit       0.005287
 4369 Fit       0.005813
 4370 Fit       0.006526
 4371 Fit      -0.000305
 4372 Fit       0.000579
 4373 Fit       0.001420
 4374 Fit       0.001952
 4375 Fit       0.002637
 4376 Fit       0.003234
 4377 Fit       0.003750
 4378 Fit       0.004206
 4379 Fit       0.004642
 4380 Fit       0.005117
 4381 Fit       0.005718
 4382 Fit       0.000355
 4383 Fit       0.001184
 4384 Fit       0.001644
 4385 Fit       0.002356
 4386 Fit       0.002975
 4387 Fit       0.003509
 4388 Fit       0.003994
 4389 Fit       0.004490
 4390 Fit       0.005087
 4391 Fit       0.000008
 4392 Fit       0.000849
 4393 Fit       0.001296
 4394 Fit       0.002019
 4395 Fit       0.002648
 4396 Fit       0.003197
 4397 Fit       0.003715
 4398 Fit       0.004283
 4399 Fit       0.000500
 4400 Fit       0.000946
 4401 Fit       0.001689
 4402 Fit       0.002335
 4403 Fit       0.002901
 4404 Fit      -0.001203
 4405 Fit      -0.000639
 4406 Fit      -0.000607
 4407 Fit      -0.001267
 4408 Fit      -0.002137
 4409 Fit      -0.001932
 4410 Fit      -0.001139
 4411 Fit      -0.000350
 4412 Fit      -0.000171
 4413 Fit      -0.000105
 4414 Fit      -0.000369
 4415 Fit      -0.001255
 4416 Fit      -0.002598
 4417 Fit      -0.003579
 4418 Fit      -0.003578
 4419 Fit      -0.002824
 4420 Fit      -0.001885
 4421 Fit      -0.001125
 4422 Fit      -0.000636
 4423 Fit      -0.000268
 4424 Fit      -0.000082
 4425 Fit       0.000134
 4426 Fit       0.000350
 4427 Fit       0.000417
 4428 Fit       0.000043
 4429 Fit      -0.001054
 4430 Fit      -0.002809
 4431 Fit      -0.004639
 4432 Fit      -0.005759
 4433 Fit      -0.005805
 4434 Fit      -0.005028
 4435 Fit      -0.003903
 4436 Fit      -0.002787
 4437 Fit      -0.001866
 4438 Fit      -0.001192
 4439 Fit      -0.000746
 4440 Fit      -0.000465
 4441 Fit      -0.000333
 4442 Fit      -0.000141
 4443 Fit       0.000121
 4444 Fit      -0.008596
 4445 Fit      -0.009202
 4446 Fit      -0.008550
 4447 Fit      -0.007208
 4448 Fit      -0.005676
 4449 Fit      -0.004247
 4450 Fit      -0.003051
 4451 Fit      -0.002124
 4452 Fit      -0.001451
 4453 Fit      -0.000993
 4454 Fit      -0.000697
 4455 Fit      -0.000498
 4456 Fit      -0.000489
 4457 Fit      -0.000263
 4458 Fit      -0.012928
 4459 Fit      -0.010837
 4460 Fit      -0.008640
 4461 Fit      -0.006656
 4462 Fit      -0.004994
 4463 Fit      -0.003671
 4464 Fit      -0.002661
 4465 Fit      -0.001922
 4466 Fit      -0.001405
 4467 Fit      -0.001060
 4468 Fit      -0.000832
 4469 Fit      -0.000661
 4470 Fit      -0.015985
 4471 Fit      -0.012697
 4472 Fit      -0.009894
 4473 Fit      -0.007611
 4474 Fit      -0.005798
 4475 Fit      -0.004387
 4476 Fit      -0.003312
 4477 Fit      -0.002514
 4478 Fit      -0.001941
 4479 Fit      -0.001542
 4480 Fit      -0.001269
 4481 Fit      -0.001071
 4482 Fit      -0.000894
 4483 Fit      -0.017286
 4484 Fit      -0.013229
 4485 Fit      -0.010123
 4486 Fit      -0.007749
 4487 Fit      -0.005940
 4488 Fit      -0.004570
 4489 Fit      -0.003546
 4490 Fit      -0.002795
 4491 Fit      -0.002257
 4492 Fit      -0.001879
 4493 Fit      -0.001609
 4494 Fit      -0.001392
 4495 Fit      -0.017288
 4496 Fit      -0.013125
 4497 Fit      -0.010069
 4498 Fit      -0.007794
 4499 Fit      -0.006086
 4500 Fit      -0.004806
 4501 Fit      -0.003853
 4502 Fit      -0.003154
 4503 Fit      -0.002646
 4504 Fit      -0.002277
 4505 Fit      -0.001993
 4506 Fit      -0.018278
 4507 Fit      -0.013838
 4508 Fit      -0.010661
 4509 Fit      -0.008333
 4510 Fit      -0.006605
 4511 Fit      -0.005316
 4512 Fit      -0.004358
 4513 Fit      -0.003650
 4514 Fit      -0.003128
 4515 Fit      -0.012877
 4516 Fit      -0.009964
 4517 Fit      -0.007857
 4518 Fit      -0.006313
 4519 Fit      -0.005179
 4520 Fit      -0.012876
 4521 Fit      -0.009964
 4522 Fit      -0.007856
 4523 Fit      -0.006313
 4524 Fit      -0.005179
 4525 Fit      -0.018277
 4526 Fit      -0.013837
 4527 Fit      -0.010660
 4528 Fit      -0.008332
 4529 Fit      -0.006604
 4530 Fit      -0.005316
 4531 Fit      -0.004358
 4532 Fit      -0.003650
 4533 Fit      -0.003128
 4534 Fit      -0.017287
 4535 Fit      -0.013124
 4536 Fit      -0.010069
 4537 Fit      -0.007793
 4538 Fit      -0.006086
 4539 Fit      -0.004806
 4540 Fit      -0.003853
 4541 Fit      -0.003153
 4542 Fit      -0.002646
 4543 Fit      -0.002277
 4544 Fit      -0.001993
 4545 Fit      -0.017285
 4546 Fit      -0.013229
 4547 Fit      -0.010122
 4548 Fit      -0.007749
 4549 Fit      -0.005940
 4550 Fit      -0.004570
 4551 Fit      -0.003546
 4552 Fit      -0.002795
 4553 Fit      -0.002257
 4554 Fit      -0.001879
 4555 Fit      -0.001609
 4556 Fit      -0.001392
 4557 Fit      -0.015985
 4558 Fit      -0.012696
 4559 Fit      -0.009894
 4560 Fit      -0.007610
 4561 Fit      -0.005797
 4562 Fit      -0.004386
 4563 Fit      -0.003312
 4564 Fit      -0.002514
 4565 Fit      -0.001941
 4566 Fit      -0.001542
 4567 Fit      -0.001269
 4568 Fit      -0.001071
 4569 Fit      -0.000894
 4570 Fit      -0.000489
 4571 Fit      -0.000264
 4572 Fit      -0.012928
 4573 Fit      -0.010837
 4574 Fit      -0.008640
 4575 Fit      -0.006655
 4576 Fit      -0.004994
 4577 Fit      -0.003671
 4578 Fit      -0.002661
 4579 Fit      -0.001921
 4580 Fit      -0.001405
 4581 Fit      -0.001060
 4582 Fit      -0.000832
 4583 Fit      -0.000661
 4584 Fit      -0.000333
 4585 Fit      -0.000141
 4586 Fit       0.000121
 4587 Fit      -0.008597
 4588 Fit      -0.009203
 4589 Fit      -0.008551
 4590 Fit      -0.007208
 4591 Fit      -0.005676
 4592 Fit      -0.004247
 4593 Fit      -0.003051
 4594 Fit      -0.002124
 4595 Fit      -0.001451
 4596 Fit      -0.000994
 4597 Fit      -0.000697
 4598 Fit      -0.000499
 4599 Fit      -0.000268
 4600 Fit      -0.000082
 4601 Fit       0.000133
 4602 Fit       0.000350
 4603 Fit       0.000417
 4604 Fit       0.000043
 4605 Fit      -0.001054
 4606 Fit      -0.002810
 4607 Fit      -0.004640
 4608 Fit      -0.005759
 4609 Fit      -0.005805
 4610 Fit      -0.005029
 4611 Fit      -0.003903
 4612 Fit      -0.002787
 4613 Fit      -0.001866
 4614 Fit      -0.001193
 4615 Fit      -0.000746
 4616 Fit      -0.000465
 4617 Fit      -0.000351
 4618 Fit      -0.000171
 4619 Fit      -0.000105
 4620 Fit      -0.000369
 4621 Fit      -0.001255
 4622 Fit      -0.002599
 4623 Fit      -0.003579
 4624 Fit      -0.003579
 4625 Fit      -0.002825
 4626 Fit      -0.001885
 4627 Fit      -0.001125
 4628 Fit      -0.000636
 4629 Fit      -0.000639
 4630 Fit      -0.000607
 4631 Fit      -0.001267
 4632 Fit      -0.002137
 4633 Fit      -0.001932
 4634 Fit      -0.001139
 4635 Fit      -0.001203
 -----------------------------------------------------------------
 Leave Link  602 at Thu Nov  2 13:05:09 2023, MaxMem=   134217728 cpu:               0.2 elap:               0.2

 Test job not archived.
 1\1\GINC-LAC-043\FOpt\RHF\6-31G(d)\C4H10O1\RAHNAMOU\02-Nov-2023\0\\#HF
 /6-31G* SCF=tight Pop=MK iop(6/33=2) iop(6/42=6) opt\\mobley_1144156\\
 0,1\C,0.9015001036,1.4638204813,0.5531090988\C,1.9226556757,0.90378736
 65,-0.4178185386\O,1.5661370628,1.2899799023,-1.7113368308\C,2.4276246
 169,0.8389326657,-2.7132565572\C,1.914398374,1.3336257523,-4.051529653
 6\H,1.1490127504,1.1816922525,1.5718499901\H,0.8751147686,2.5458946306
 ,0.4910444276\H,-0.0876942318,1.08582973,0.3206214795\H,1.9575579353,-
 0.1832522437,-0.3475687708\H,2.9189167321,1.2744948674,-0.1773034719\H
 ,3.4372098565,1.2079991819,-2.5334385947\H,2.4759588526,-0.2498193557,
 -2.7036845976\H,2.5629136428,0.9999656131,-4.8557635253\H,0.9144906793
 ,0.9569677874,-4.2352311824\H,1.8772031813,2.4170813684,-4.0646932731\
 \Version=ES64L-G16RevC.01\State=1-A\HF=-232.1448854\RMSD=3.119e-09\RMS
 F=7.556e-06\Dipole=0.3950091,-0.2715205,0.0945636\Quadrupole=-0.592159
 8,-0.555469,1.1476288,0.1379319,-0.4068153,0.0810542\PG=C01 [X(C4H10O1
 )]\\@


 WOE UNTO THEM THAT CALL EVIL GOOD, AND GOOD EVIL      
 Job cpu time:       0 days  0 hours  0 minutes 16.2 seconds.
 Elapsed time:       0 days  0 hours  0 minutes 16.0 seconds.
 File lengths (MBytes):  RWF=    272 Int=      0 D2E=      0 Chk=     32 Scr=     32
 Normal termination of Gaussian 16 at Thu Nov  2 13:05:09 2023.
