 Entering Gaussian System, Link 0=/opt/software/Gaussian/g16-AVX2-C.01/g16/g16
 Input=mobley_1075836.com
 Output=mobley_1075836.log
 Initial command:
 /opt/software/Gaussian/g16-AVX2-C.01/g16/l1.exe "/mnt/gs21/scratch/rahnamou/Gau-10923.inp" -scrdir="/mnt/gs21/scratch/rahnamou/"
 Entering Link 1 = /opt/software/Gaussian/g16-AVX2-C.01/g16/l1.exe PID=     10932.
  
 Copyright (c) 1988-2019, Gaussian, Inc.  All Rights Reserved.
  
 This is part of the Gaussian(R) 16 program.  It is based on
 the Gaussian(R) 09 system (copyright 2009, Gaussian, Inc.),
 the Gaussian(R) 03 system (copyright 2003, Gaussian, Inc.),
 the Gaussian(R) 98 system (copyright 1998, Gaussian, Inc.),
 the Gaussian(R) 94 system (copyright 1995, Gaussian, Inc.),
 the Gaussian 92(TM) system (copyright 1992, Gaussian, Inc.),
 the Gaussian 90(TM) system (copyright 1990, Gaussian, Inc.),
 the Gaussian 88(TM) system (copyright 1988, Gaussian, Inc.),
 the Gaussian 86(TM) system (copyright 1986, Carnegie Mellon
 University), and the Gaussian 82(TM) system (copyright 1983,
 Carnegie Mellon University). Gaussian is a federally registered
 trademark of Gaussian, Inc.
  
 This software contains proprietary and confidential information,
 including trade secrets, belonging to Gaussian, Inc.
  
 This software is provided under written license and may be
 used, copied, transmitted, or stored only in accord with that
 written license.
  
 The following legend is applicable only to US Government
 contracts under FAR:
  
                    RESTRICTED RIGHTS LEGEND
  
 Use, reproduction and disclosure by the US Government is
 subject to restrictions as set forth in subparagraphs (a)
 and (c) of the Commercial Computer Software - Restricted
 Rights clause in FAR 52.227-19.
  
 Gaussian, Inc.
 340 Quinnipiac St., Bldg. 40, Wallingford CT 06492
  
  
 ---------------------------------------------------------------
 Warning -- This program may not be used in any manner that
 competes with the business of Gaussian, Inc. or will provide
 assistance to any competitor of Gaussian, Inc.  The licensee
 of this program is prohibited from giving any competitor of
 Gaussian, Inc. access to this program.  By using this program,
 the user acknowledges that Gaussian, Inc. is engaged in the
 business of creating and licensing software in the field of
 computational chemistry and represents and warrants to the
 licensee that it is not a competitor of Gaussian, Inc. and that
 it will not use this program in any manner prohibited above.
 ---------------------------------------------------------------
  

 Cite this work as:
 Gaussian 16, Revision C.01,
 M. J. Frisch, G. W. Trucks, H. B. Schlegel, G. E. Scuseria, 
 M. A. Robb, J. R. Cheeseman, G. Scalmani, V. Barone, 
 G. A. Petersson, H. Nakatsuji, X. Li, M. Caricato, A. V. Marenich, 
 J. Bloino, B. G. Janesko, R. Gomperts, B. Mennucci, H. P. Hratchian, 
 J. V. Ortiz, A. F. Izmaylov, J. L. Sonnenberg, D. Williams-Young, 
 F. Ding, F. Lipparini, F. Egidi, J. Goings, B. Peng, A. Petrone, 
 T. Henderson, D. Ranasinghe, V. G. Zakrzewski, J. Gao, N. Rega, 
 G. Zheng, W. Liang, M. Hada, M. Ehara, K. Toyota, R. Fukuda, 
 J. Hasegawa, M. Ishida, T. Nakajima, Y. Honda, O. Kitao, H. Nakai, 
 T. Vreven, K. Throssell, J. A. Montgomery, Jr., J. E. Peralta, 
 F. Ogliaro, M. J. Bearpark, J. J. Heyd, E. N. Brothers, K. N. Kudin, 
 V. N. Staroverov, T. A. Keith, R. Kobayashi, J. Normand, 
 K. Raghavachari, A. P. Rendell, J. C. Burant, S. S. Iyengar, 
 J. Tomasi, M. Cossi, J. M. Millam, M. Klene, C. Adamo, R. Cammi, 
 J. W. Ochterski, R. L. Martin, K. Morokuma, O. Farkas, 
 J. B. Foresman, and D. J. Fox, Gaussian, Inc., Wallingford CT, 2019.
 
 ******************************************
 Gaussian 16:  ES64L-G16RevC.01  3-Jul-2019
                 2-Nov-2023 
 ******************************************
 %chk=mobley_1075836.chk
 %mem=1GB
 %NProcShared=1
 Will use up to    1 processors via shared memory.
 -------------------------------------------------------
 #HF/6-31G* SCF=tight Pop=MK iop(6/33=2) iop(6/42=6) opt
 -------------------------------------------------------
 1/18=20,19=15,38=1/1,3;
 2/9=110,12=2,17=6,18=5,40=1/2;
 3/5=1,6=6,7=1,11=9,25=1,30=1,71=1/1,2,3;
 4//1;
 5/5=2,32=2,38=5/2;
 6/7=2,8=2,9=2,10=2,15=8,20=1,28=1,33=2,42=6/1,2;
 7//1,2,3,16;
 1/18=20,19=15/3(2);
 2/9=110/2;
 99//99;
 2/9=110/2;
 3/5=1,6=6,7=1,11=9,25=1,30=1,71=1/1,2,3;
 4/5=5,16=3,69=1/1;
 5/5=2,32=2,38=5/2;
 7//1,2,3,16;
 1/18=20,19=15/3(-5);
 2/9=110/2;
 6/7=2,8=2,9=2,10=2,15=8,19=2,20=1,28=1,33=2,42=6/1,2;
 99/9=1/99;
 --------------
 mobley_1075836
 --------------
 Symbolic Z-matrix:
 Charge =  0 Multiplicity = 1
 C                    -0.872     0.546     0.373 
 C                    -0.882     0.551     1.892 
 C                    -2.071     1.298     2.45 
 O                    -2.939     1.843     1.781 
 O                    -2.015     1.262     3.814 
 C                    -3.082     1.933     4.493 
 H                    -0.004     0.001    -0.012 
 H                    -1.776     0.066    -0.012 
 H                    -0.83      1.566    -0.023 
 H                     0.031     1.031     2.259 
 H                    -0.918    -0.48      2.258 
 H                    -2.93      1.837     5.565 
 H                    -4.026     1.48      4.194 
 H                    -3.063     2.981     4.205 
 

 GradGradGradGradGradGradGradGradGradGradGradGradGradGradGradGradGradGrad
 Berny optimization.
 Initialization pass.
                           ----------------------------
                           !    Initial Parameters    !
                           ! (Angstroms and Degrees)  !
 --------------------------                            --------------------------
 ! Name  Definition              Value          Derivative Info.                !
 --------------------------------------------------------------------------------
 ! R1    R(1,2)                  1.519          estimate D2E/DX2                !
 ! R2    R(1,7)                  1.0948         estimate D2E/DX2                !
 ! R3    R(1,8)                  1.0935         estimate D2E/DX2                !
 ! R4    R(1,9)                  1.095          estimate D2E/DX2                !
 ! R5    R(2,3)                  1.511          estimate D2E/DX2                !
 ! R6    R(2,10)                 1.0948         estimate D2E/DX2                !
 ! R7    R(2,11)                 1.0946         estimate D2E/DX2                !
 ! R8    R(3,4)                  1.2239         estimate D2E/DX2                !
 ! R9    R(3,5)                  1.3656         estimate D2E/DX2                !
 ! R10   R(5,6)                  1.4317         estimate D2E/DX2                !
 ! R11   R(6,12)                 1.087          estimate D2E/DX2                !
 ! R12   R(6,13)                 1.0889         estimate D2E/DX2                !
 ! R13   R(6,14)                 1.087          estimate D2E/DX2                !
 ! A1    A(2,1,7)              111.008          estimate D2E/DX2                !
 ! A2    A(2,1,8)              110.3686         estimate D2E/DX2                !
 ! A3    A(2,1,9)              111.0282         estimate D2E/DX2                !
 ! A4    A(7,1,8)              108.2454         estimate D2E/DX2                !
 ! A5    A(7,1,9)              107.8255         estimate D2E/DX2                !
 ! A6    A(8,1,9)              108.2562         estimate D2E/DX2                !
 ! A7    A(1,2,3)              112.0918         estimate D2E/DX2                !
 ! A8    A(1,2,10)             109.3389         estimate D2E/DX2                !
 ! A9    A(1,2,11)             109.3578         estimate D2E/DX2                !
 ! A10   A(3,2,10)             108.4014         estimate D2E/DX2                !
 ! A11   A(3,2,11)             108.4383         estimate D2E/DX2                !
 ! A12   A(10,2,11)            109.1646         estimate D2E/DX2                !
 ! A13   A(2,3,4)              125.1939         estimate D2E/DX2                !
 ! A14   A(2,3,5)              108.878          estimate D2E/DX2                !
 ! A15   A(4,3,5)              125.9281         estimate D2E/DX2                !
 ! A16   A(3,5,6)              115.5171         estimate D2E/DX2                !
 ! A17   A(5,6,12)             108.7912         estimate D2E/DX2                !
 ! A18   A(5,6,13)             108.7165         estimate D2E/DX2                !
 ! A19   A(5,6,14)             108.2504         estimate D2E/DX2                !
 ! A20   A(12,6,13)            110.8111         estimate D2E/DX2                !
 ! A21   A(12,6,14)            110.1208         estimate D2E/DX2                !
 ! A22   A(13,6,14)            110.089          estimate D2E/DX2                !
 ! D1    D(7,1,2,3)            179.9835         estimate D2E/DX2                !
 ! D2    D(7,1,2,10)            59.7512         estimate D2E/DX2                !
 ! D3    D(7,1,2,11)           -59.725          estimate D2E/DX2                !
 ! D4    D(8,1,2,3)            -59.9948         estimate D2E/DX2                !
 ! D5    D(8,1,2,10)           179.7729         estimate D2E/DX2                !
 ! D6    D(8,1,2,11)            60.2967         estimate D2E/DX2                !
 ! D7    D(9,1,2,3)             60.0535         estimate D2E/DX2                !
 ! D8    D(9,1,2,10)           -60.1788         estimate D2E/DX2                !
 ! D9    D(9,1,2,11)          -179.655          estimate D2E/DX2                !
 ! D10   D(1,2,3,4)              0.0602         estimate D2E/DX2                !
 ! D11   D(1,2,3,5)           -179.9865         estimate D2E/DX2                !
 ! D12   D(10,2,3,4)           120.8364         estimate D2E/DX2                !
 ! D13   D(10,2,3,5)           -59.2103         estimate D2E/DX2                !
 ! D14   D(11,2,3,4)          -120.7645         estimate D2E/DX2                !
 ! D15   D(11,2,3,5)            59.1889         estimate D2E/DX2                !
 ! D16   D(2,3,5,6)            179.9718         estimate D2E/DX2                !
 ! D17   D(4,3,5,6)             -0.0753         estimate D2E/DX2                !
 ! D18   D(3,5,6,12)          -179.9886         estimate D2E/DX2                !
 ! D19   D(3,5,6,13)            59.2459         estimate D2E/DX2                !
 ! D20   D(3,5,6,14)           -60.3309         estimate D2E/DX2                !
 --------------------------------------------------------------------------------
 Trust Radius=3.00D-01 FncErr=1.00D-07 GrdErr=1.00D-07 EigMax=2.50D+02 EigMin=1.00D-04
 Number of steps in this run=     65 maximum allowed number of steps=    100.
 GradGradGradGradGradGradGradGradGradGradGradGradGradGradGradGradGradGrad

                          Input orientation:                          
 ---------------------------------------------------------------------
 Center     Atomic      Atomic             Coordinates (Angstroms)
 Number     Number       Type             X           Y           Z
 ---------------------------------------------------------------------
      1          6           0       -0.872000    0.546000    0.373000
      2          6           0       -0.882000    0.551000    1.892000
      3          6           0       -2.071000    1.298000    2.450000
      4          8           0       -2.939000    1.843000    1.781000
      5          8           0       -2.015000    1.262000    3.814000
      6          6           0       -3.082000    1.933000    4.493000
      7          1           0       -0.004000    0.001000   -0.012000
      8          1           0       -1.776000    0.066000   -0.012000
      9          1           0       -0.830000    1.566000   -0.023000
     10          1           0        0.031000    1.031000    2.259000
     11          1           0       -0.918000   -0.480000    2.258000
     12          1           0       -2.930000    1.837000    5.565000
     13          1           0       -4.026000    1.480000    4.194000
     14          1           0       -3.063000    2.981000    4.205000
 ---------------------------------------------------------------------
                    Distance matrix (angstroms):
                    1          2          3          4          5
     1  C    0.000000
     2  C    1.519041   0.000000
     3  C    2.513371   1.510991   0.000000
     4  O    2.817297   2.431632   1.223932   0.000000
     5  O    3.695888   2.341643   1.365624   2.307472   0.000000
     6  C    4.876707   3.676292   2.366262   2.717258   1.431702
     7  H    1.094840   2.167625   3.466431   3.901543   4.502501
     8  H    1.093545   2.158628   2.768807   2.779415   4.015696
     9  H    1.094979   2.167984   2.779862   2.789091   4.027308
    10  H    2.146539   1.094832   2.127481   3.115883   2.580214
    11  H    2.146629   1.094629   2.127806   3.115814   2.580525
    12  H    5.732269   4.397616   3.275916   3.784015   2.057632
    13  H    5.041836   4.005868   2.626154   2.671312   2.058165
    14  H    5.041223   4.001453   2.626134   2.680708   2.050889
                    6          7          8          9         10
     6  C    0.000000
     7  H    5.788068   0.000000
     8  H    5.048401   1.773192   0.000000
     9  H    5.059689   1.769639   1.773425   0.000000
    10  H    3.936385   2.493906   3.058417   2.497012   0.000000
    11  H    3.937092   2.493924   2.487404   3.065423   1.784299
    12  H    1.086970   6.560130   5.964150   5.975716   4.510742
    13  H    1.088920   6.004528   4.975172   5.291966   4.517198
    14  H    1.087018   6.001747   5.285516   4.986431   4.142735
                   11         12         13         14
    11  H    0.000000
    12  H    4.511417   0.000000
    13  H    4.153235   1.791174   0.000000
    14  H    4.513353   1.782141   1.783393   0.000000
 Stoichiometry    C4H8O2
 Framework group  C1[X(C4H8O2)]
 Deg. of freedom    36
 Full point group                 C1      NOp   1
 Largest Abelian subgroup         C1      NOp   1
 Largest concise Abelian subgroup C1      NOp   1
                         Standard orientation:                         
 ---------------------------------------------------------------------
 Center     Atomic      Atomic             Coordinates (Angstroms)
 Number     Number       Type             X           Y           Z
 ---------------------------------------------------------------------
      1          6           0        2.462274    0.079348    0.000628
      2          6           0        1.191068   -0.752230   -0.000563
      3          6           0       -0.050930    0.108313   -0.000193
      4          8           0       -0.061120    1.332203   -0.000124
      5          8           0       -1.150040   -0.702171   -0.001002
      6          6           0       -2.413244   -0.028313   -0.000134
      7          1           0        3.350251   -0.561099    0.000635
      8          1           0        2.500442    0.717548   -0.886550
      9          1           0        2.511477    0.720589    0.886839
     10          1           0        1.172110   -1.386814    0.891402
     11          1           0        1.172901   -1.385967   -0.892897
     12          1           0       -3.206506   -0.771441   -0.000690
     13          1           0       -2.473398    0.602451   -0.885720
     14          1           0       -2.473010    0.581766    0.897553
 ---------------------------------------------------------------------
 Rotational constants (GHZ):           9.2602896           2.1498027           1.8044536
 Standard basis: 6-31G(d) (6D, 7F)
 There are   106 symmetry adapted cartesian basis functions of A   symmetry.
 There are   106 symmetry adapted basis functions of A   symmetry.
   106 basis functions,   200 primitive gaussians,   106 cartesian basis functions
    24 alpha electrons       24 beta electrons
       nuclear repulsion energy       244.3840192517 Hartrees.
 NAtoms=   14 NActive=   14 NUniq=   14 SFac= 1.00D+00 NAtFMM=   60 NAOKFM=F Big=F
 Integral buffers will be    131072 words long.
 Raffenetti 1 integral format.
 Two-electron integral symmetry is turned on.
 One-electron integrals computed using PRISM.
 NBasis=   106 RedAO= T EigKep=  3.49D-03  NBF=   106
 NBsUse=   106 1.00D-06 EigRej= -1.00D+00 NBFU=   106
 ExpMin= 1.61D-01 ExpMax= 5.48D+03 ExpMxC= 8.25D+02 IAcc=3 IRadAn=         5 AccDes= 0.00D+00
 Harris functional with IExCor=  205 and IRadAn=       5 diagonalized for initial guess.
 HarFok:  IExCor=  205 AccDes= 0.00D+00 IRadAn=         5 IDoV= 1 UseB2=F ITyADJ=14
 ICtDFT=  3500011 ScaDFX=  1.000000  1.000000  1.000000  1.000000
 FoFCou: FMM=F IPFlag=           0 FMFlag=      100000 FMFlg1=           0
         NFxFlg=           0 DoJE=T BraDBF=F KetDBF=T FulRan=T
         wScrn=  0.000000 ICntrl=       500 IOpCl=  0 I1Cent=   200000004 NGrid=           0
         NMat0=    1 NMatS0=      1 NMatT0=    0 NMatD0=    1 NMtDS0=    0 NMtDT0=    0
 Petite list used in FoFCou.
 Keep R1 ints in memory in canonical form, NReq=16966648.
 Requested convergence on RMS density matrix=1.00D-08 within 128 cycles.
 Requested convergence on MAX density matrix=1.00D-06.
 Requested convergence on             energy=1.00D-06.
 No special actions if energy rises.
 SCF Done:  E(RHF) =  -305.865852120     A.U. after   13 cycles
            NFock= 13  Conv=0.79D-08     -V/T= 2.0027
 SCF density gives NOpUse=  1 NOpAll=  1.

 **********************************************************************

            Population analysis using the SCF Density.

 **********************************************************************

 Orbital symmetries:
 BldTbl:  Degeneracy threshold= 1.00D-02
       Occupied  (A) (A) (A) (A) (A) (A) (A) (A) (A) (A) (A) (A)
                 (A) (A) (A) (A) (A) (A) (A) (A) (A) (A) (A) (A)
       Virtual   (A) (A) (A) (A) (A) (A) (A) (A) (A) (A) (A) (A)
                 (A) (A) (A) (A) (A) (A) (A) (A) (A) (A) (A) (A)
                 (A) (A) (A) (A) (A) (A) (A) (A) (A) (A) (A) (A)
                 (A) (A) (A) (A) (A) (A) (A) (A) (A) (A) (A) (A)
                 (A) (A) (A) (A) (A) (A) (A) (A) (A) (A) (A) (A)
                 (A) (A) (A) (A) (A) (A) (A) (A) (A) (A) (A) (A)
                 (A) (A) (A) (A) (A) (A) (A) (A) (A) (A)
 The electronic state is 1-A.
 Alpha  occ. eigenvalues --  -20.60880 -20.55582 -11.38560 -11.28569 -11.24313
 Alpha  occ. eigenvalues --  -11.21909  -1.44773  -1.35220  -1.06450  -0.97251
 Alpha  occ. eigenvalues --   -0.87368  -0.76394  -0.69416  -0.67607  -0.66569
 Alpha  occ. eigenvalues --   -0.62390  -0.60134  -0.53769  -0.53417  -0.51632
 Alpha  occ. eigenvalues --   -0.51296  -0.49522  -0.45671  -0.44247
 Alpha virt. eigenvalues --    0.18107   0.23467   0.26154   0.29279   0.30120
 Alpha virt. eigenvalues --    0.30341   0.31942   0.32503   0.32533   0.35812
 Alpha virt. eigenvalues --    0.41043   0.43708   0.49355   0.54477   0.71586
 Alpha virt. eigenvalues --    0.72922   0.75080   0.76047   0.77808   0.80271
 Alpha virt. eigenvalues --    0.80818   0.89967   0.91277   0.96906   0.97515
 Alpha virt. eigenvalues --    0.98567   1.06061   1.10732   1.12142   1.12425
 Alpha virt. eigenvalues --    1.12903   1.16799   1.17888   1.18506   1.20447
 Alpha virt. eigenvalues --    1.21818   1.24024   1.28472   1.32500   1.37953
 Alpha virt. eigenvalues --    1.39008   1.53186   1.62789   1.64984   1.68715
 Alpha virt. eigenvalues --    1.76488   1.79017   1.79318   1.89315   1.96349
 Alpha virt. eigenvalues --    2.06902   2.07373   2.11332   2.19022   2.19285
 Alpha virt. eigenvalues --    2.25690   2.28189   2.32487   2.35700   2.36788
 Alpha virt. eigenvalues --    2.45368   2.46928   2.54863   2.62012   2.63348
 Alpha virt. eigenvalues --    2.65728   2.66493   2.75172   2.77484   2.87638
 Alpha virt. eigenvalues --    3.00555   3.01926   3.08719   3.29410   3.40507
 Alpha virt. eigenvalues --    3.49828   4.38554   4.53235   4.58874   4.68493
 Alpha virt. eigenvalues --    4.75383   4.94133
          Condensed to atoms (all electrons):
               1          2          3          4          5          6
     1  C    5.108605   0.311082  -0.054088   0.004734   0.003029  -0.000150
     2  C    0.311082   5.216116   0.378945  -0.075093  -0.098138   0.005218
     3  C   -0.054088   0.378945   4.143475   0.560116   0.268326  -0.028227
     4  O    0.004734  -0.075093   0.560116   8.146506  -0.067643   0.002446
     5  O    0.003029  -0.098138   0.268326  -0.067643   8.454324   0.165518
     6  C   -0.000150   0.005218  -0.028227   0.002446   0.165518   4.854097
     7  H    0.390166  -0.037213   0.004712   0.000245  -0.000031   0.000002
     8  H    0.394404  -0.037101  -0.004103   0.001932   0.000011  -0.000005
     9  H    0.394376  -0.036082  -0.003993   0.001847   0.000011  -0.000005
    10  H   -0.037510   0.387165  -0.031091   0.001155   0.001541  -0.000190
    11  H   -0.037361   0.387355  -0.031064   0.001151   0.001562  -0.000191
    12  H    0.000000   0.000013   0.003477   0.000289  -0.027900   0.393623
    13  H    0.000008  -0.000069  -0.005158   0.003353  -0.034191   0.395773
    14  H    0.000008  -0.000075  -0.005231   0.003245  -0.034789   0.396440
               7          8          9         10         11         12
     1  C    0.390166   0.394404   0.394376  -0.037510  -0.037361   0.000000
     2  C   -0.037213  -0.037101  -0.036082   0.387165   0.387355   0.000013
     3  C    0.004712  -0.004103  -0.003993  -0.031091  -0.031064   0.003477
     4  O    0.000245   0.001932   0.001847   0.001155   0.001151   0.000289
     5  O   -0.000031   0.000011   0.000011   0.001541   0.001562  -0.027900
     6  C    0.000002  -0.000005  -0.000005  -0.000190  -0.000191   0.393623
     7  H    0.539699  -0.027003  -0.027645  -0.002556  -0.002585  -0.000000
     8  H   -0.027003   0.515501  -0.023408   0.003825  -0.002296   0.000000
     9  H   -0.027645  -0.023408   0.515204  -0.002223   0.003737   0.000000
    10  H   -0.002556   0.003825  -0.002223   0.496633  -0.018644  -0.000007
    11  H   -0.002585  -0.002296   0.003737  -0.018644   0.496112  -0.000007
    12  H   -0.000000   0.000000   0.000000  -0.000007  -0.000007   0.502022
    13  H   -0.000000  -0.000001  -0.000000   0.000002  -0.000005  -0.028507
    14  H   -0.000000  -0.000000  -0.000001  -0.000004   0.000003  -0.029515
              13         14
     1  C    0.000008   0.000008
     2  C   -0.000069  -0.000075
     3  C   -0.005158  -0.005231
     4  O    0.003353   0.003245
     5  O   -0.034191  -0.034789
     6  C    0.395773   0.396440
     7  H   -0.000000  -0.000000
     8  H   -0.000001  -0.000000
     9  H   -0.000000  -0.000001
    10  H    0.000002  -0.000004
    11  H   -0.000005   0.000003
    12  H   -0.028507  -0.029515
    13  H    0.517066  -0.031880
    14  H   -0.031880   0.518905
 Mulliken charges:
               1
     1  C   -0.477304
     2  C   -0.402123
     3  C    0.803905
     4  O   -0.584284
     5  O   -0.631632
     6  C   -0.184349
     7  H    0.162210
     8  H    0.178245
     9  H    0.178181
    10  H    0.201904
    11  H    0.202232
    12  H    0.186511
    13  H    0.183608
    14  H    0.182896
 Sum of Mulliken charges =  -0.00000
 Mulliken charges with hydrogens summed into heavy atoms:
               1
     1  C    0.041332
     2  C    0.002013
     3  C    0.803905
     4  O   -0.584284
     5  O   -0.631632
     6  C    0.368665
 DipInt: DoE/N= T F RetVal/Mat= T F Init=T NMatP=  1 IDeriv=0 Min/MaxMlt=  0  4
 Entering OneElI...
 OneElI was handed   134186787 working-precision words.
 Multipole integrals L=0 to 4 MinM= 0 MaxM= 0.
 Requested accuracy = 0.1000D-12
 ShPair: Thresh= 1.00D-13 NBox=     0 BxSize= 0.00D+00 RnKept= 1.24D+01
         NSMCal=                  820 NSMKep=                 792
 PrmmSu-InSpLW:  IPartL=    0 NPrtUS=    1 NPrtUL=    1 DoSpLW=F IThBeg=    0 IThEnd=    0 NThAct=    1.
 PrSmSu:  IncTry=   512 NBBP=            792 NTPThr=   100 NPartT=    1 Incr=           7 LDynOK=F GPUOK=F.
 PrsmSu:  NPrtUS=   1 ThrOK=F IAlg=2 LenDen=           0 ISkipM=0 DoSpLW=F IThBeg=    0 IThEnd=    0.
 Prism:   IPart=     0 DynPar=F LinDyn=F Incr=           7.
 PRISM was handed   134113394 working-precision words and   792 shell-pairs
 IPart=  0 NShTot=         792 NBatch=          37 AvBLen=        21.4
 PrsmSu-ThDecC:  IPartSL=    0    0 NPrtUSL=    1    1 IThBeg=    0 IThEnd=    0 CPU=   -1 GPU=   -1 NThAct=    1.
 PrSmSu:  NxtVal=              8.
 Electronic moments (au):
        -48.00000000         -0.22975055         -0.72756748          0.00102088
       -520.73511298       -131.73754005        -43.33516566         -1.30929085
          0.00302240         -0.00873269       -116.29256742        -64.99086178
         -0.15732325        -22.17981499         91.73521531         -0.68648425
        -15.32092398          2.23525264          0.12724081         -0.19838071
     -12436.17638477       -919.01631011       -184.97850856       -182.56181470
         -1.28069654         73.48008683          0.09574073          0.69924609
         -0.11561980       -831.88587729       -608.32565680       -143.16241514
         -0.14616943         -0.64906682         24.80064326
 Electronic spatial extent (au):  <R**2>=            695.8078
 DipInt: DoE/N= F T RetVal/Mat= T F Init=T NMatP=  1 IDeriv=0 Min/MaxMlt=  0  4
 Nuclear    moments (au):
         48.00000000          0.00000000         -0.00000000         -0.00000000
        498.18458495        100.49040236         16.97837807         -0.00000000
         -0.00000000          0.00000000         82.93765177         59.35611623
          0.17095446         21.78535180        -92.18445103          0.81405321
         12.64861206         -0.91069719         -0.15027119          0.26826370
      10703.04174278        480.62021604         48.04829995        191.18426687
          1.67763196        -70.62726440         -0.13971634         -0.82720843
          0.11479441        459.92475294        277.87072588         56.49529271
          0.01389930          0.78021096        -26.55266834
 Total      moments (au):
         -0.00000000         -0.22975055         -0.72756748          0.00102088
        -22.55052803        -31.24713769        -26.35678759         -1.30929085
          0.00302240         -0.00873269        -33.35491564         -5.63474554
          0.01363121         -0.39446319         -0.44923572          0.12756896
         -2.67231192          1.32455545         -0.02303038          0.06988299
      -1733.13464199       -438.39609407       -136.93020861          8.62245217
          0.39693541          2.85282243         -0.04397562         -0.12796234
         -0.00082539       -371.96112435       -330.45493092        -86.66712243
         -0.13227013          0.13114414         -1.75202508
 Traceless Quadrup. (au):
          4.16762307         -4.52898659          0.36136351         -1.30929085
          0.00302240         -0.00873269
 Charge=             -0.0000 electrons
 Dipole moment (field-independent basis, Debye):
    X=             -0.5840    Y=             -1.8493    Z=              0.0026  Tot=              1.9393
 Quadrupole moment (field-independent basis, Debye-Ang):
   XX=            -30.3312   YY=            -42.0285   ZZ=            -35.4508
   XY=             -1.7610   XZ=              0.0041   YZ=             -0.0117
 Traceless Quadrupole moment (field-independent basis, Debye-Ang):
   XX=              5.6056   YY=             -6.0916   ZZ=              0.4860
   XY=             -1.7610   XZ=              0.0041   YZ=             -0.0117
 Octapole moment (field-independent basis, Debye-Ang**2):
  XXX=            -23.7407  YYY=             -4.0106  ZZZ=              0.0097  XYY=             -0.2808
  XXY=             -0.3197  XXZ=              0.0908  XZZ=             -1.9020  YZZ=              0.9428
  YYZ=             -0.0164  XYZ=              0.0497
 Hexadecapole moment (field-independent basis, Debye-Ang**3):
 XXXX=           -652.7816 YYYY=           -165.1210 ZZZZ=            -51.5745 XXXY=              3.2476
 XXXZ=              0.1495 YYYX=              1.0745 YYYZ=             -0.0166 ZZZX=             -0.0482
 ZZZY=             -0.0003 XXYY=           -140.0984 XXZZ=           -124.4652 YYZZ=            -32.6430
 XXYZ=             -0.0498 YYXZ=              0.0494 ZZXY=             -0.6599
 N-N= 2.443840192517D+02 E-N=-1.206488891651D+03  KE= 3.050479439654D+02
 Entering OneElI...
 OneElI was handed   134191988 working-precision words.
 Calculate electrostatic properties
    NBasis =   106  MinDer = 0  MaxDer = 0
    NGrid  =    14  NMatD  =   1
 Requested accuracy = 0.1000D-12
 ShPair: Thresh= 1.00D-13 NBox=     0 BxSize= 0.00D+00 RnKept= 1.24D+01
         NSMCal=                  820 NSMKep=                 765
 PrmmSu-InSpLW:  IPartL=    0 NPrtUS=    1 NPrtUL=    1 DoSpLW=F IThBeg=    0 IThEnd=    0 NThAct=    1.
 PrSmSu:  IncTry=   512 NBBP=          10710 NTPThr=   100 NPartT=    1 Incr=         107 LDynOK=F GPUOK=F.
 PrsmSu:  NPrtUS=   1 ThrOK=F IAlg=2 LenDen=           0 ISkipM=0 DoSpLW=F IThBeg=    0 IThEnd=    0.
 Prism:   IPart=     0 DynPar=F LinDyn=F Incr=         107.
 PRISM was handed   134121595 working-precision words and   765 shell-pairs
 IPart=  0 NShTot=       10710 NBatch=         765 AvBLen=        14.0
 PrsmSu-ThDecC:  IPartSL=    0    0 NPrtUSL=    1    1 IThBeg=    0 IThEnd=    0 CPU=   -1 GPU=   -1 NThAct=    1.
 PrSmSu:  NxtVal=            108.
 --------------------------------------------------------
       Center         ----      EFG at Nuclei      ----
                      3XX-RR        3YY-RR        3ZZ-RR
 --------------------------------------------------------
     1   Atom       -0.043653      0.008037      0.035616
     2   Atom       -0.043011      0.011770      0.031241
     3   Atom        0.190294      0.360755     -0.551049
     4   Atom        1.722303     -0.822397     -0.899905
     5   Atom       -1.671800      0.337895      1.333905
     6   Atom       -0.325540      0.092725      0.232815
     7   Atom       -0.145837     -0.008137      0.153974
     8   Atom        0.144618      0.000566     -0.145184
     9   Atom        0.143222     -0.000382     -0.142840
    10   Atom        0.140976     -0.000313     -0.140663
    11   Atom        0.141120      0.000120     -0.141240
    12   Atom       -0.096533     -0.065440      0.161973
    13   Atom        0.134843      0.007163     -0.142006
    14   Atom        0.136531      0.015955     -0.152487
 --------------------------------------------------------
                        XY            XZ            YZ
 --------------------------------------------------------
     1   Atom       -0.034059     -0.000222     -0.000859
     2   Atom        0.067098     -0.000152     -0.000046
     3   Atom       -0.210795      0.000018      0.000229
     4   Atom       -0.076744      0.000356      0.000627
     5   Atom       -0.203676     -0.003426      0.001018
     6   Atom        0.275970      0.002364     -0.000060
     7   Atom        0.209606      0.000168     -0.000194
     8   Atom       -0.016242      0.010764      0.212224
     9   Atom       -0.018131     -0.013637     -0.210752
    10   Atom       -0.001340      0.008599      0.210199
    11   Atom       -0.001140     -0.008244     -0.210259
    12   Atom       -0.219496     -0.000494     -0.000495
    13   Atom        0.026364     -0.018627      0.213157
    14   Atom        0.026046      0.019345     -0.212321
 --------------------------------------------------------


 ---------------------------------------------------------------------------------
              Nuclear Quadrupole Coupling Constant in Principal Axis System
 ---------------------------------------------------------------------------------

       Atom             a.u.   MegaHertz   Gauss  10(-4) cm-1        Axes


 ---------------------------------------------------------------------------------

 No NMR shielding tensors so no spin-rotation constants.
 Leave Link  601 at Thu Nov  2 13:04:14 2023, MaxMem=   134217728 cpu:               0.1 elap:               0.1
 FitSet:  NAtFit=    14 NAtPot=    14 NAtFrz=     0 MDM=    18 TotChg=   0.00000
 Merz-Kollman atomic radii used.
 Atom Element Radius
    1     6    1.50
    2     6    1.50
    3     6    1.50
    4     8    1.40
    5     8    1.40
    6     6    1.50
    7     1    1.20
    8     1    1.20
    9     1    1.20
   10     1    1.20
   11     1    1.20
   12     1    1.20
   13     1    1.20
   14     1    1.20
 Generate VDW surfaces: Layer= 4 Dens= 6 Start= 1.400 Inc= 0.200

 **********************************************************************

            Electrostatic Properties Using The SCF Density.

 **********************************************************************

       Atomic Center    1 is at   2.462274  0.079348  0.000628
       Atomic Center    2 is at   1.191068 -0.752230 -0.000563
       Atomic Center    3 is at  -0.050930  0.108313 -0.000193
       Atomic Center    4 is at  -0.061120  1.332203 -0.000124
       Atomic Center    5 is at  -1.150040 -0.702171 -0.001002
       Atomic Center    6 is at  -2.413244 -0.028313 -0.000134
       Atomic Center    7 is at   3.350251 -0.561099  0.000635
       Atomic Center    8 is at   2.500442  0.717548 -0.886550
       Atomic Center    9 is at   2.511477  0.720589  0.886839
       Atomic Center   10 is at   1.172110 -1.386814  0.891402
       Atomic Center   11 is at   1.172901 -1.385967 -0.892897
       Atomic Center   12 is at  -3.206506 -0.771441 -0.000690
       Atomic Center   13 is at  -2.473398  0.602451 -0.885720
       Atomic Center   14 is at  -2.473010  0.581766  0.897553
      ESP Fit Center   15 is at   2.462274 -0.724287  1.940775
      ESP Fit Center   16 is at   2.864092 -0.616621  1.940775
      ESP Fit Center   17 is at   2.982316 -0.965037  1.746714
      ESP Fit Center   18 is at   3.324474 -0.706651  1.746714
      ESP Fit Center   19 is at   3.550187 -0.342112  1.746714
      ESP Fit Center   20 is at   3.947198  0.079348  1.485552
      ESP Fit Center   21 is at   4.157622  0.497214  1.167326
      ESP Fit Center   22 is at   4.223104  0.893994  0.804263
      ESP Fit Center   23 is at   4.355005  0.891582  0.410318
      ESP Fit Center   24 is at   4.152759  1.255960  0.410318
      ESP Fit Center   25 is at   3.881304  1.572167  0.410318
      ESP Fit Center   26 is at   4.402421  0.882983  0.000628
      ESP Fit Center   27 is at   4.208360  1.246045  0.000628
      ESP Fit Center   28 is at   3.947198  1.564272  0.000628
      ESP Fit Center   29 is at   3.628972  1.825434  0.000628
      ESP Fit Center   30 is at   3.265909  2.019495  0.000628
      ESP Fit Center   31 is at   2.871964  2.138997  0.000628
      ESP Fit Center   32 is at   2.462274  2.179348  0.000628
      ESP Fit Center   33 is at   2.052584  2.138997  0.000628
      ESP Fit Center   34 is at   4.355005  0.891582 -0.409061
      ESP Fit Center   35 is at   4.152759  1.255960 -0.409061
      ESP Fit Center   36 is at   3.881304  1.572167 -0.409061
      ESP Fit Center   37 is at   4.223104  0.893994 -0.803007
      ESP Fit Center   38 is at   4.157622  0.497214 -1.166069
      ESP Fit Center   39 is at   3.947198  0.079348 -1.484296
      ESP Fit Center   40 is at   2.982316 -0.965037 -1.745458
      ESP Fit Center   41 is at   3.324474 -0.706651 -1.745458
      ESP Fit Center   42 is at   3.550187 -0.342112 -1.745458
      ESP Fit Center   43 is at   2.462274 -0.724287 -1.939519
      ESP Fit Center   44 is at   2.864092 -0.616621 -1.939519
      ESP Fit Center   45 is at   1.191068  0.051406  1.939584
      ESP Fit Center   46 is at   0.789251 -0.056261  1.939584
      ESP Fit Center   47 is at   2.610099 -2.245048  0.409127
      ESP Fit Center   48 is at   0.024371 -2.498316 -0.000563
      ESP Fit Center   49 is at   0.387433 -2.692377 -0.000563
      ESP Fit Center   50 is at   0.781379 -2.811879 -0.000563
      ESP Fit Center   51 is at   1.191068 -2.852230 -0.000563
      ESP Fit Center   52 is at   1.600758 -2.811879 -0.000563
      ESP Fit Center   53 is at   1.994704 -2.692377 -0.000563
      ESP Fit Center   54 is at   2.357766 -2.498316 -0.000563
      ESP Fit Center   55 is at   2.675993 -2.237154 -0.000563
      ESP Fit Center   56 is at   2.610099 -2.245048 -0.410253
      ESP Fit Center   57 is at   1.191068  0.051406 -1.940710
      ESP Fit Center   58 is at   0.789251 -0.056261 -1.940710
      ESP Fit Center   59 is at  -0.050930  0.108313  2.099807
      ESP Fit Center   60 is at   0.358760  0.108313  2.059456
      ESP Fit Center   61 is at   0.153915  0.463115  2.059456
      ESP Fit Center   62 is at  -0.255775  0.463115  2.059456
      ESP Fit Center   63 is at  -0.460620  0.108313  2.059456
      ESP Fit Center   64 is at  -0.255775 -0.246488  2.059456
      ESP Fit Center   65 is at   0.153915 -0.246488  2.059456
      ESP Fit Center   66 is at   0.752705  0.108313  1.939954
      ESP Fit Center   67 is at   0.645039  0.510131  1.939954
      ESP Fit Center   68 is at   0.350888  0.804282  1.939954
      ESP Fit Center   69 is at  -0.050930  0.911948  1.939954
      ESP Fit Center   70 is at  -0.452748  0.804282  1.939954
      ESP Fit Center   71 is at  -0.746898  0.510131  1.939954
      ESP Fit Center   72 is at  -0.854565  0.108313  1.939954
      ESP Fit Center   73 is at  -0.746898 -0.293504  1.939954
      ESP Fit Center   74 is at  -0.452748 -0.587655  1.939954
      ESP Fit Center   75 is at  -0.050930 -0.695322  1.939954
      ESP Fit Center   76 is at   1.036983  0.529773  1.745894
      ESP Fit Center   77 is at   0.811270  0.894312  1.745894
      ESP Fit Center   78 is at   1.036983  0.529773 -1.746279
      ESP Fit Center   79 is at   0.811270  0.894312 -1.746279
      ESP Fit Center   80 is at   0.752705  0.108313 -1.940340
      ESP Fit Center   81 is at   0.645039  0.510131 -1.940340
      ESP Fit Center   82 is at   0.350888  0.804282 -1.940340
      ESP Fit Center   83 is at  -0.050930  0.911948 -1.940340
      ESP Fit Center   84 is at  -0.452748  0.804282 -1.940340
      ESP Fit Center   85 is at  -0.746898  0.510131 -1.940340
      ESP Fit Center   86 is at  -0.854565  0.108313 -1.940340
      ESP Fit Center   87 is at  -0.746898 -0.293504 -1.940340
      ESP Fit Center   88 is at  -0.452748 -0.587655 -1.940340
      ESP Fit Center   89 is at  -0.050930 -0.695322 -1.940340
      ESP Fit Center   90 is at   0.358760  0.108313 -2.059842
      ESP Fit Center   91 is at   0.153915  0.463115 -2.059842
      ESP Fit Center   92 is at  -0.255775  0.463115 -2.059842
      ESP Fit Center   93 is at  -0.460620  0.108313 -2.059842
      ESP Fit Center   94 is at  -0.255775 -0.246488 -2.059842
      ESP Fit Center   95 is at   0.153915 -0.246488 -2.059842
      ESP Fit Center   96 is at  -0.050930  0.108313 -2.100193
      ESP Fit Center   97 is at  -0.061120  1.332203  1.959876
      ESP Fit Center   98 is at   0.346387  1.332203  1.917045
      ESP Fit Center   99 is at   0.142634  1.685114  1.917045
      ESP Fit Center  100 is at  -0.264873  1.685114  1.917045
      ESP Fit Center  101 is at  -0.468627  1.332203  1.917045
      ESP Fit Center  102 is at  -0.264873  0.979292  1.917045
      ESP Fit Center  103 is at   0.142634  0.979292  1.917045
      ESP Fit Center  104 is at   0.736084  1.332203  1.790425
      ESP Fit Center  105 is at   0.629279  1.730805  1.790425
      ESP Fit Center  106 is at   0.337482  2.022602  1.790425
      ESP Fit Center  107 is at  -0.061120  2.129407  1.790425
      ESP Fit Center  108 is at  -0.459722  2.022602  1.790425
      ESP Fit Center  109 is at  -0.751518  1.730805  1.790425
      ESP Fit Center  110 is at  -0.858323  1.332203  1.790425
      ESP Fit Center  111 is at   1.090939  1.332203  1.585549
      ESP Fit Center  112 is at   1.013143  1.748375  1.585549
      ESP Fit Center  113 is at   0.790262  2.108340  1.585549
      ESP Fit Center  114 is at   0.452397  2.363484  1.585549
      ESP Fit Center  115 is at   0.045179  2.479348  1.585549
      ESP Fit Center  116 is at  -0.376396  2.440283  1.585549
      ESP Fit Center  117 is at  -0.755390  2.251566  1.585549
      ESP Fit Center  118 is at  -1.040620  1.938684  1.585549
      ESP Fit Center  119 is at  -1.193563  1.543893  1.585549
      ESP Fit Center  120 is at   1.164220  2.119681  1.311372
      ESP Fit Center  121 is at   0.892727  2.433000  1.311372
      ESP Fit Center  122 is at   0.543959  2.657140  1.311372
      ESP Fit Center  123 is at   0.146171  2.773941  1.311372
      ESP Fit Center  124 is at  -0.268410  2.773941  1.311372
      ESP Fit Center  125 is at  -0.666198  2.657140  1.311372
      ESP Fit Center  126 is at  -1.014966  2.433000  1.311372
      ESP Fit Center  127 is at  -1.286459  2.119681  1.311372
      ESP Fit Center  128 is at   1.426332  2.149936  0.979876
      ESP Fit Center  129 is at   1.176239  2.494160  0.979876
      ESP Fit Center  130 is at   0.848398  2.765373  0.979876
      ESP Fit Center  131 is at   0.463409  2.946536  0.979876
      ESP Fit Center  132 is at   0.045462  3.026263  0.979876
      ESP Fit Center  133 is at  -0.379182  2.999547  0.979876
      ESP Fit Center  134 is at  -0.783842  2.868065  0.979876
      ESP Fit Center  135 is at  -1.143089  2.640080  0.979876
      ESP Fit Center  136 is at  -1.434353  2.329915  0.979876
      ESP Fit Center  137 is at   1.618350  2.140993  0.605549
      ESP Fit Center  138 is at   1.396270  2.494432  0.605549
      ESP Fit Center  139 is at   1.101110  2.789592  0.605549
      ESP Fit Center  140 is at   0.747670  3.011673  0.605549
      ESP Fit Center  141 is at   0.353675  3.149538  0.605549
      ESP Fit Center  142 is at  -0.061120  3.196274  0.605549
      ESP Fit Center  143 is at  -0.475914  3.149538  0.605549
      ESP Fit Center  144 is at  -0.869910  3.011673  0.605549
      ESP Fit Center  145 is at  -1.223349  2.789592  0.605549
      ESP Fit Center  146 is at  -1.518509  2.494432  0.605549
      ESP Fit Center  147 is at  -1.740589  2.140993  0.605549
      ESP Fit Center  148 is at   1.707983  2.150677  0.204752
      ESP Fit Center  149 is at   1.490675  2.511847  0.204752
      ESP Fit Center  150 is at   1.200806  2.817857  0.204752
      ESP Fit Center  151 is at   0.851932  3.054400  0.204752
      ESP Fit Center  152 is at   0.460363  3.210415  0.204752
      ESP Fit Center  153 is at   0.044411  3.278607  0.204752
      ESP Fit Center  154 is at  -0.376475  3.255787  0.204752
      ESP Fit Center  155 is at  -0.782616  3.143023  0.204752
      ESP Fit Center  156 is at  -1.155021  2.945586  0.204752
      ESP Fit Center  157 is at  -1.476276  2.672710  0.204752
      ESP Fit Center  158 is at  -1.731360  2.337153  0.204752
      ESP Fit Center  159 is at   1.707983  2.150677 -0.205000
      ESP Fit Center  160 is at   1.490675  2.511847 -0.205000
      ESP Fit Center  161 is at   1.200806  2.817857 -0.205000
      ESP Fit Center  162 is at   0.851932  3.054400 -0.205000
      ESP Fit Center  163 is at   0.460363  3.210415 -0.205000
      ESP Fit Center  164 is at   0.044411  3.278607 -0.205000
      ESP Fit Center  165 is at  -0.376475  3.255787 -0.205000
      ESP Fit Center  166 is at  -0.782616  3.143023 -0.205000
      ESP Fit Center  167 is at  -1.155021  2.945586 -0.205000
      ESP Fit Center  168 is at  -1.476276  2.672710 -0.205000
      ESP Fit Center  169 is at  -1.731360  2.337153 -0.205000
      ESP Fit Center  170 is at   1.618350  2.140993 -0.605797
      ESP Fit Center  171 is at   1.396270  2.494432 -0.605797
      ESP Fit Center  172 is at   1.101110  2.789592 -0.605797
      ESP Fit Center  173 is at   0.747670  3.011673 -0.605797
      ESP Fit Center  174 is at   0.353675  3.149538 -0.605797
      ESP Fit Center  175 is at  -0.061120  3.196274 -0.605797
      ESP Fit Center  176 is at  -0.475914  3.149538 -0.605797
      ESP Fit Center  177 is at  -0.869910  3.011673 -0.605797
      ESP Fit Center  178 is at  -1.223349  2.789592 -0.605797
      ESP Fit Center  179 is at  -1.518509  2.494432 -0.605797
      ESP Fit Center  180 is at  -1.740589  2.140993 -0.605797
      ESP Fit Center  181 is at   1.426332  2.149936 -0.980124
      ESP Fit Center  182 is at   1.176239  2.494160 -0.980124
      ESP Fit Center  183 is at   0.848398  2.765373 -0.980124
      ESP Fit Center  184 is at   0.463409  2.946536 -0.980124
      ESP Fit Center  185 is at   0.045462  3.026263 -0.980124
      ESP Fit Center  186 is at  -0.379182  2.999547 -0.980124
      ESP Fit Center  187 is at  -0.783842  2.868065 -0.980124
      ESP Fit Center  188 is at  -1.143089  2.640080 -0.980124
      ESP Fit Center  189 is at  -1.434353  2.329915 -0.980124
      ESP Fit Center  190 is at   1.164220  2.119681 -1.311620
      ESP Fit Center  191 is at   0.892727  2.433000 -1.311620
      ESP Fit Center  192 is at   0.543959  2.657140 -1.311620
      ESP Fit Center  193 is at   0.146171  2.773941 -1.311620
      ESP Fit Center  194 is at  -0.268410  2.773941 -1.311620
      ESP Fit Center  195 is at  -0.666198  2.657140 -1.311620
      ESP Fit Center  196 is at  -1.014966  2.433000 -1.311620
      ESP Fit Center  197 is at  -1.286459  2.119681 -1.311620
      ESP Fit Center  198 is at   1.090939  1.332203 -1.585797
      ESP Fit Center  199 is at   1.013143  1.748375 -1.585797
      ESP Fit Center  200 is at   0.790262  2.108340 -1.585797
      ESP Fit Center  201 is at   0.452397  2.363484 -1.585797
      ESP Fit Center  202 is at   0.045179  2.479348 -1.585797
      ESP Fit Center  203 is at  -0.376396  2.440283 -1.585797
      ESP Fit Center  204 is at  -0.755390  2.251566 -1.585797
      ESP Fit Center  205 is at  -1.040620  1.938684 -1.585797
      ESP Fit Center  206 is at  -1.193563  1.543893 -1.585797
      ESP Fit Center  207 is at   0.736084  1.332203 -1.790673
      ESP Fit Center  208 is at   0.629279  1.730805 -1.790673
      ESP Fit Center  209 is at   0.337482  2.022602 -1.790673
      ESP Fit Center  210 is at  -0.061120  2.129407 -1.790673
      ESP Fit Center  211 is at  -0.459722  2.022602 -1.790673
      ESP Fit Center  212 is at  -0.751518  1.730805 -1.790673
      ESP Fit Center  213 is at  -0.858323  1.332203 -1.790673
      ESP Fit Center  214 is at   0.346387  1.332203 -1.917293
      ESP Fit Center  215 is at   0.142634  1.685114 -1.917293
      ESP Fit Center  216 is at  -0.264873  1.685114 -1.917293
      ESP Fit Center  217 is at  -0.468627  1.332203 -1.917293
      ESP Fit Center  218 is at  -0.264873  0.979292 -1.917293
      ESP Fit Center  219 is at   0.142634  0.979292 -1.917293
      ESP Fit Center  220 is at  -0.061120  1.332203 -1.960124
      ESP Fit Center  221 is at  -1.150040 -0.702171  1.958998
      ESP Fit Center  222 is at  -0.742533 -0.702171  1.916168
      ESP Fit Center  223 is at  -0.946286 -0.349260  1.916168
      ESP Fit Center  224 is at  -1.353793 -0.349260  1.916168
      ESP Fit Center  225 is at  -1.557547 -0.702171  1.916168
      ESP Fit Center  226 is at  -1.353793 -1.055082  1.916168
      ESP Fit Center  227 is at  -0.946286 -1.055082  1.916168
      ESP Fit Center  228 is at  -1.840439 -1.100773  1.789547
      ESP Fit Center  229 is at  -1.548642 -1.392570  1.789547
      ESP Fit Center  230 is at  -1.150040 -1.499375  1.789547
      ESP Fit Center  231 is at  -0.751438 -1.392570  1.789547
      ESP Fit Center  232 is at  -0.459641 -1.100773  1.789547
      ESP Fit Center  233 is at  -1.844311 -1.621534  1.584672
      ESP Fit Center  234 is at  -1.465316 -1.810251  1.584672
      ESP Fit Center  235 is at  -1.043741 -1.849316  1.584672
      ESP Fit Center  236 is at  -0.636523 -1.733452  1.584672
      ESP Fit Center  237 is at  -2.103886 -1.802969  1.310494
      ESP Fit Center  238 is at  -1.755118 -2.027108  1.310494
      ESP Fit Center  239 is at  -1.357330 -2.143909  1.310494
      ESP Fit Center  240 is at  -0.942749 -2.143909  1.310494
      ESP Fit Center  241 is at  -0.544961 -2.027108  1.310494
      ESP Fit Center  242 is at  -2.232010 -2.010048  0.978998
      ESP Fit Center  243 is at  -1.872762 -2.238033  0.978998
      ESP Fit Center  244 is at  -1.468103 -2.369515  0.978998
      ESP Fit Center  245 is at  -1.043459 -2.396231  0.978998
      ESP Fit Center  246 is at  -0.625511 -2.316504  0.978998
      ESP Fit Center  247 is at  -2.312269 -2.159560  0.604672
      ESP Fit Center  248 is at  -1.958830 -2.381641  0.604672
      ESP Fit Center  249 is at  -1.564835 -2.519506  0.604672
      ESP Fit Center  250 is at  -1.150040 -2.566242  0.604672
      ESP Fit Center  251 is at  -0.735245 -2.519506  0.604672
      ESP Fit Center  252 is at  -0.341250 -2.381641  0.604672
      ESP Fit Center  253 is at  -2.243941 -2.315555  0.203874
      ESP Fit Center  254 is at  -1.871536 -2.512991  0.203874
      ESP Fit Center  255 is at  -1.465395 -2.625755  0.203874
      ESP Fit Center  256 is at  -1.044509 -2.648575  0.203874
      ESP Fit Center  257 is at  -0.628557 -2.580383  0.203874
      ESP Fit Center  258 is at  -0.236989 -2.424368  0.203874
      ESP Fit Center  259 is at  -2.243941 -2.315555 -0.205877
      ESP Fit Center  260 is at  -1.871536 -2.512991 -0.205877
      ESP Fit Center  261 is at  -1.465395 -2.625755 -0.205877
      ESP Fit Center  262 is at  -1.044509 -2.648575 -0.205877
      ESP Fit Center  263 is at  -0.628557 -2.580383 -0.205877
      ESP Fit Center  264 is at  -0.236989 -2.424368 -0.205877
      ESP Fit Center  265 is at  -2.312269 -2.159560 -0.606675
      ESP Fit Center  266 is at  -1.958830 -2.381641 -0.606675
      ESP Fit Center  267 is at  -1.564835 -2.519506 -0.606675
      ESP Fit Center  268 is at  -1.150040 -2.566242 -0.606675
      ESP Fit Center  269 is at  -0.735245 -2.519506 -0.606675
      ESP Fit Center  270 is at  -0.341250 -2.381641 -0.606675
      ESP Fit Center  271 is at  -2.232010 -2.010048 -0.981002
      ESP Fit Center  272 is at  -1.872762 -2.238033 -0.981002
      ESP Fit Center  273 is at  -1.468103 -2.369515 -0.981002
      ESP Fit Center  274 is at  -1.043459 -2.396231 -0.981002
      ESP Fit Center  275 is at  -0.625511 -2.316504 -0.981002
      ESP Fit Center  276 is at  -2.103886 -1.802969 -1.312498
      ESP Fit Center  277 is at  -1.755118 -2.027108 -1.312498
      ESP Fit Center  278 is at  -1.357330 -2.143909 -1.312498
      ESP Fit Center  279 is at  -0.942749 -2.143909 -1.312498
      ESP Fit Center  280 is at  -0.544961 -2.027108 -1.312498
      ESP Fit Center  281 is at  -1.844311 -1.621534 -1.586675
      ESP Fit Center  282 is at  -1.465316 -1.810251 -1.586675
      ESP Fit Center  283 is at  -1.043741 -1.849316 -1.586675
      ESP Fit Center  284 is at  -0.636523 -1.733452 -1.586675
      ESP Fit Center  285 is at  -1.150040  0.095033 -1.791551
      ESP Fit Center  286 is at  -1.840439 -1.100773 -1.791551
      ESP Fit Center  287 is at  -1.548642 -1.392570 -1.791551
      ESP Fit Center  288 is at  -1.150040 -1.499375 -1.791551
      ESP Fit Center  289 is at  -0.751438 -1.392570 -1.791551
      ESP Fit Center  290 is at  -0.459641 -1.100773 -1.791551
      ESP Fit Center  291 is at  -0.742533 -0.702171 -1.918171
      ESP Fit Center  292 is at  -0.946286 -0.349260 -1.918171
      ESP Fit Center  293 is at  -1.353793 -0.349260 -1.918171
      ESP Fit Center  294 is at  -1.557547 -0.702171 -1.918171
      ESP Fit Center  295 is at  -1.353793 -1.055082 -1.918171
      ESP Fit Center  296 is at  -0.946286 -1.055082 -1.918171
      ESP Fit Center  297 is at  -1.150040 -0.702171 -1.961002
      ESP Fit Center  298 is at  -2.815062 -0.724281  1.940013
      ESP Fit Center  299 is at  -2.413244 -0.831948  1.940013
      ESP Fit Center  300 is at  -2.011427 -0.724281  1.940013
      ESP Fit Center  301 is at  -3.405190 -0.642500  1.745953
      ESP Fit Center  302 is at  -3.116336 -0.959357  1.745953
      ESP Fit Center  303 is at  -2.732526 -1.150472  1.745953
      ESP Fit Center  304 is at  -2.305595 -1.190033  1.745953
      ESP Fit Center  305 is at  -2.624571 -1.498123  1.484791
      ESP Fit Center  306 is at  -2.201917 -1.498123  1.484791
      ESP Fit Center  307 is at  -4.159330 -0.028313  1.166564
      ESP Fit Center  308 is at  -4.251831  0.591179  0.803502
      ESP Fit Center  309 is at  -4.342018  0.181454  0.803502
      ESP Fit Center  310 is at  -3.976020  1.313286  0.409556
      ESP Fit Center  311 is at  -4.214091  0.971239  0.409556
      ESP Fit Center  312 is at  -4.378436  0.588270  0.409556
      ESP Fit Center  313 is at  -2.003554  2.031336 -0.000134
      ESP Fit Center  314 is at  -2.413244  2.071687 -0.000134
      ESP Fit Center  315 is at  -2.822934  2.031336 -0.000134
      ESP Fit Center  316 is at  -3.216879  1.911834 -0.000134
      ESP Fit Center  317 is at  -3.579942  1.717773 -0.000134
      ESP Fit Center  318 is at  -3.898168  1.456611 -0.000134
      ESP Fit Center  319 is at  -4.159330  1.138385 -0.000134
      ESP Fit Center  320 is at  -4.353391  0.775322 -0.000134
      ESP Fit Center  321 is at  -4.472893  0.381377 -0.000134
      ESP Fit Center  322 is at  -3.976020  1.313286 -0.409823
      ESP Fit Center  323 is at  -4.214091  0.971239 -0.409823
      ESP Fit Center  324 is at  -4.378436  0.588270 -0.409823
      ESP Fit Center  325 is at  -4.251831  0.591179 -0.803769
      ESP Fit Center  326 is at  -4.342018  0.181454 -0.803769
      ESP Fit Center  327 is at  -2.624571 -1.498123 -1.485058
      ESP Fit Center  328 is at  -2.201917 -1.498123 -1.485058
      ESP Fit Center  329 is at  -3.405190 -0.642500 -1.746220
      ESP Fit Center  330 is at  -3.116336 -0.959357 -1.746220
      ESP Fit Center  331 is at  -2.732526 -1.150472 -1.746220
      ESP Fit Center  332 is at  -2.305595 -1.190033 -1.746220
      ESP Fit Center  333 is at  -2.815062 -0.724281 -1.940281
      ESP Fit Center  334 is at  -2.413244 -0.831948 -1.940281
      ESP Fit Center  335 is at  -2.011427 -0.724281 -1.940281
      ESP Fit Center  336 is at   3.785067 -0.561099  1.623390
      ESP Fit Center  337 is at   3.567659 -0.937660  1.623390
      ESP Fit Center  338 is at   4.190251 -0.561099  1.455558
      ESP Fit Center  339 is at   4.077712 -0.141099  1.455558
      ESP Fit Center  340 is at   3.350251 -1.401099  1.455558
      ESP Fit Center  341 is at   3.770251 -1.288560  1.455558
      ESP Fit Center  342 is at   4.077712 -0.981099  1.455558
      ESP Fit Center  343 is at   4.538190 -0.561099  1.188574
      ESP Fit Center  344 is at   4.457971 -0.131965  1.188574
      ESP Fit Center  345 is at   4.228148  0.239211  1.188574
      ESP Fit Center  346 is at   3.025156 -1.703689  1.188574
      ESP Fit Center  347 is at   3.459860 -1.743970  1.188574
      ESP Fit Center  348 is at   3.879761 -1.624498  1.188574
      ESP Fit Center  349 is at   4.228148 -1.361408  1.188574
      ESP Fit Center  350 is at   4.457971 -0.990232  1.188574
      ESP Fit Center  351 is at   4.805173 -0.561099  0.840635
      ESP Fit Center  352 is at   4.740535 -0.132253  0.840635
      ESP Fit Center  353 is at   4.552364  0.258488  0.840635
      ESP Fit Center  354 is at   3.026500 -1.979543  0.840635
      ESP Fit Center  355 is at   3.458977 -2.011953  0.840635
      ESP Fit Center  356 is at   3.881794 -1.915448  0.840635
      ESP Fit Center  357 is at   4.257380 -1.698603  0.840635
      ESP Fit Center  358 is at   4.552364 -1.380686  0.840635
      ESP Fit Center  359 is at   4.740535 -0.989945  0.840635
      ESP Fit Center  360 is at   4.973006 -0.561099  0.435451
      ESP Fit Center  361 is at   4.917712 -0.141099  0.435451
      ESP Fit Center  362 is at   4.755598  0.250279  0.435451
      ESP Fit Center  363 is at   4.497712  0.586363  0.435451
      ESP Fit Center  364 is at   2.930251 -2.128560  0.435451
      ESP Fit Center  365 is at   3.350251 -2.183854  0.435451
      ESP Fit Center  366 is at   3.770251 -2.128560  0.435451
      ESP Fit Center  367 is at   4.161628 -1.966446  0.435451
      ESP Fit Center  368 is at   4.497712 -1.708560  0.435451
      ESP Fit Center  369 is at   4.755598 -1.372476  0.435451
      ESP Fit Center  370 is at   4.917712 -0.981099  0.435451
      ESP Fit Center  371 is at   5.030251 -0.561099  0.000635
      ESP Fit Center  372 is at   4.977470 -0.143300  0.000635
      ESP Fit Center  373 is at   4.822446  0.248248  0.000635
      ESP Fit Center  374 is at   4.574918  0.588941  0.000635
      ESP Fit Center  375 is at   3.035450 -2.211341  0.000635
      ESP Fit Center  376 is at   3.455739 -2.237784  0.000635
      ESP Fit Center  377 is at   3.869399 -2.158874  0.000635
      ESP Fit Center  378 is at   4.250440 -1.979570  0.000635
      ESP Fit Center  379 is at   4.574918 -1.711138  0.000635
      ESP Fit Center  380 is at   4.822446 -1.370445  0.000635
      ESP Fit Center  381 is at   4.977470 -0.978898  0.000635
      ESP Fit Center  382 is at   4.973006 -0.561099 -0.434181
      ESP Fit Center  383 is at   4.917712 -0.141099 -0.434181
      ESP Fit Center  384 is at   4.755598  0.250279 -0.434181
      ESP Fit Center  385 is at   4.497712  0.586363 -0.434181
      ESP Fit Center  386 is at   2.930251 -2.128560 -0.434181
      ESP Fit Center  387 is at   3.350251 -2.183854 -0.434181
      ESP Fit Center  388 is at   3.770251 -2.128560 -0.434181
      ESP Fit Center  389 is at   4.161628 -1.966446 -0.434181
      ESP Fit Center  390 is at   4.497712 -1.708560 -0.434181
      ESP Fit Center  391 is at   4.755598 -1.372476 -0.434181
      ESP Fit Center  392 is at   4.917712 -0.981099 -0.434181
      ESP Fit Center  393 is at   4.805173 -0.561099 -0.839365
      ESP Fit Center  394 is at   4.740535 -0.132253 -0.839365
      ESP Fit Center  395 is at   4.552364  0.258488 -0.839365
      ESP Fit Center  396 is at   3.026500 -1.979543 -0.839365
      ESP Fit Center  397 is at   3.458977 -2.011953 -0.839365
      ESP Fit Center  398 is at   3.881794 -1.915448 -0.839365
      ESP Fit Center  399 is at   4.257380 -1.698603 -0.839365
      ESP Fit Center  400 is at   4.552364 -1.380686 -0.839365
      ESP Fit Center  401 is at   4.740535 -0.989945 -0.839365
      ESP Fit Center  402 is at   4.538190 -0.561099 -1.187305
      ESP Fit Center  403 is at   4.457971 -0.131965 -1.187305
      ESP Fit Center  404 is at   4.228148  0.239211 -1.187305
      ESP Fit Center  405 is at   3.025156 -1.703689 -1.187305
      ESP Fit Center  406 is at   3.459860 -1.743970 -1.187305
      ESP Fit Center  407 is at   3.879761 -1.624498 -1.187305
      ESP Fit Center  408 is at   4.228148 -1.361408 -1.187305
      ESP Fit Center  409 is at   4.457971 -0.990232 -1.187305
      ESP Fit Center  410 is at   4.190251 -0.561099 -1.454288
      ESP Fit Center  411 is at   4.077712 -0.141099 -1.454288
      ESP Fit Center  412 is at   3.350251 -1.401099 -1.454288
      ESP Fit Center  413 is at   3.770251 -1.288560 -1.454288
      ESP Fit Center  414 is at   4.077712 -0.981099 -1.454288
      ESP Fit Center  415 is at   3.785067 -0.561099 -1.622121
      ESP Fit Center  416 is at   3.567659 -0.937660 -1.622121
      ESP Fit Center  417 is at   3.647903  1.865009 -0.451734
      ESP Fit Center  418 is at   3.311819  2.122895 -0.451734
      ESP Fit Center  419 is at   2.920442  2.285009 -0.451734
      ESP Fit Center  420 is at   2.500442  2.340303 -0.451734
      ESP Fit Center  421 is at   2.080442  2.285009 -0.451734
      ESP Fit Center  422 is at   1.689064  2.122895 -0.451734
      ESP Fit Center  423 is at   4.127661  1.135347 -0.886550
      ESP Fit Center  424 is at   3.972637  1.526894 -0.886550
      ESP Fit Center  425 is at   3.725109  1.867587 -0.886550
      ESP Fit Center  426 is at   3.400631  2.136019 -0.886550
      ESP Fit Center  427 is at   3.019590  2.315323 -0.886550
      ESP Fit Center  428 is at   2.605930  2.394233 -0.886550
      ESP Fit Center  429 is at   2.185641  2.367791 -0.886550
      ESP Fit Center  430 is at   1.785132  2.237657 -0.886550
      ESP Fit Center  431 is at   4.123197  0.717548 -1.321366
      ESP Fit Center  432 is at   4.067903  1.137548 -1.321366
      ESP Fit Center  433 is at   3.905789  1.528926 -1.321366
      ESP Fit Center  434 is at   3.647903  1.865009 -1.321366
      ESP Fit Center  435 is at   3.311819  2.122895 -1.321366
      ESP Fit Center  436 is at   2.920442  2.285009 -1.321366
      ESP Fit Center  437 is at   2.500442  2.340303 -1.321366
      ESP Fit Center  438 is at   2.080442  2.285009 -1.321366
      ESP Fit Center  439 is at   1.689064  2.122895 -1.321366
      ESP Fit Center  440 is at   1.352980  1.865009 -1.321366
      ESP Fit Center  441 is at   3.955364  0.717548 -1.726550
      ESP Fit Center  442 is at   3.890726  1.146394 -1.726550
      ESP Fit Center  443 is at   3.702555  1.537135 -1.726550
      ESP Fit Center  444 is at   3.407571  1.855052 -1.726550
      ESP Fit Center  445 is at   3.031985  2.071897 -1.726550
      ESP Fit Center  446 is at   2.609168  2.168402 -1.726550
      ESP Fit Center  447 is at   2.176691  2.135993 -1.726550
      ESP Fit Center  448 is at   1.772980  1.977548 -1.726550
      ESP Fit Center  449 is at   1.433908  1.707147 -1.726550
      ESP Fit Center  450 is at   1.189602  1.348815 -1.726550
      ESP Fit Center  451 is at   1.061769  0.934393 -1.726550
      ESP Fit Center  452 is at   3.702555 -0.102039 -1.726550
      ESP Fit Center  453 is at   3.890726  0.288702 -1.726550
      ESP Fit Center  454 is at   3.688381  0.717548 -2.074489
      ESP Fit Center  455 is at   3.608162  1.146681 -2.074489
      ESP Fit Center  456 is at   3.378339  1.517858 -2.074489
      ESP Fit Center  457 is at   3.029952  1.780948 -2.074489
      ESP Fit Center  458 is at   2.610051  1.900420 -2.074489
      ESP Fit Center  459 is at   2.175347  1.860139 -2.074489
      ESP Fit Center  460 is at   1.784548  1.665544 -2.074489
      ESP Fit Center  461 is at   1.490435  1.342918 -2.074489
      ESP Fit Center  462 is at   1.332729  0.935831 -2.074489
      ESP Fit Center  463 is at   1.332729  0.499265 -2.074489
      ESP Fit Center  464 is at   1.490435  0.092179 -2.074489
      ESP Fit Center  465 is at   1.784548 -0.230448 -2.074489
      ESP Fit Center  466 is at   2.175347 -0.425043 -2.074489
      ESP Fit Center  467 is at   2.610051 -0.465324 -2.074489
      ESP Fit Center  468 is at   3.029952 -0.345852 -2.074489
      ESP Fit Center  469 is at   3.378339 -0.082762 -2.074489
      ESP Fit Center  470 is at   3.608162  0.288415 -2.074489
      ESP Fit Center  471 is at   3.340442  0.717548 -2.341472
      ESP Fit Center  472 is at   3.227903  1.137548 -2.341472
      ESP Fit Center  473 is at   2.920442  1.445009 -2.341472
      ESP Fit Center  474 is at   2.500442  1.557548 -2.341472
      ESP Fit Center  475 is at   2.080442  1.445009 -2.341472
      ESP Fit Center  476 is at   1.772980  1.137548 -2.341472
      ESP Fit Center  477 is at   1.660442  0.717548 -2.341472
      ESP Fit Center  478 is at   1.772980  0.297548 -2.341472
      ESP Fit Center  479 is at   2.080442 -0.009913 -2.341472
      ESP Fit Center  480 is at   2.500442 -0.122452 -2.341472
      ESP Fit Center  481 is at   2.920442 -0.009913 -2.341472
      ESP Fit Center  482 is at   3.227903  0.297548 -2.341472
      ESP Fit Center  483 is at   2.935258  0.717548 -2.509305
      ESP Fit Center  484 is at   2.717850  1.094110 -2.509305
      ESP Fit Center  485 is at   2.283034  1.094110 -2.509305
      ESP Fit Center  486 is at   2.065626  0.717548 -2.509305
      ESP Fit Center  487 is at   2.283034  0.340986 -2.509305
      ESP Fit Center  488 is at   2.717850  0.340986 -2.509305
      ESP Fit Center  489 is at   2.500442  0.717548 -2.566550
      ESP Fit Center  490 is at   2.511477  0.720589  2.566839
      ESP Fit Center  491 is at   2.946293  0.720589  2.509594
      ESP Fit Center  492 is at   2.728885  1.097151  2.509594
      ESP Fit Center  493 is at   2.294069  1.097151  2.509594
      ESP Fit Center  494 is at   2.076661  0.720589  2.509594
      ESP Fit Center  495 is at   2.294069  0.344027  2.509594
      ESP Fit Center  496 is at   2.728885  0.344027  2.509594
      ESP Fit Center  497 is at   3.351477  0.720589  2.341761
      ESP Fit Center  498 is at   3.238938  1.140589  2.341761
      ESP Fit Center  499 is at   2.931477  1.448050  2.341761
      ESP Fit Center  500 is at   2.511477  1.560589  2.341761
      ESP Fit Center  501 is at   2.091477  1.448050  2.341761
      ESP Fit Center  502 is at   1.784015  1.140589  2.341761
      ESP Fit Center  503 is at   1.671477  0.720589  2.341761
      ESP Fit Center  504 is at   1.784015  0.300589  2.341761
      ESP Fit Center  505 is at   2.091477 -0.006872  2.341761
      ESP Fit Center  506 is at   2.511477 -0.119411  2.341761
      ESP Fit Center  507 is at   2.931477 -0.006872  2.341761
      ESP Fit Center  508 is at   3.238938  0.300589  2.341761
      ESP Fit Center  509 is at   3.699416  0.720589  2.074778
      ESP Fit Center  510 is at   3.619197  1.149722  2.074778
      ESP Fit Center  511 is at   3.389374  1.520899  2.074778
      ESP Fit Center  512 is at   3.040987  1.783989  2.074778
      ESP Fit Center  513 is at   2.621086  1.903461  2.074778
      ESP Fit Center  514 is at   2.186382  1.863180  2.074778
      ESP Fit Center  515 is at   1.795583  1.668585  2.074778
      ESP Fit Center  516 is at   1.501470  1.345959  2.074778
      ESP Fit Center  517 is at   1.343764  0.938872  2.074778
      ESP Fit Center  518 is at   1.343764  0.502306  2.074778
      ESP Fit Center  519 is at   1.501470  0.095220  2.074778
      ESP Fit Center  520 is at   1.795583 -0.227407  2.074778
      ESP Fit Center  521 is at   2.186382 -0.422002  2.074778
      ESP Fit Center  522 is at   2.621086 -0.462283  2.074778
      ESP Fit Center  523 is at   3.040987 -0.342811  2.074778
      ESP Fit Center  524 is at   3.389374 -0.079721  2.074778
      ESP Fit Center  525 is at   3.619197  0.291456  2.074778
      ESP Fit Center  526 is at   3.966399  0.720589  1.726839
      ESP Fit Center  527 is at   3.901761  1.149435  1.726839
      ESP Fit Center  528 is at   3.713590  1.540176  1.726839
      ESP Fit Center  529 is at   3.418606  1.858093  1.726839
      ESP Fit Center  530 is at   3.043020  2.074938  1.726839
      ESP Fit Center  531 is at   2.620203  2.171443  1.726839
      ESP Fit Center  532 is at   2.187726  2.139034  1.726839
      ESP Fit Center  533 is at   1.784015  1.980589  1.726839
      ESP Fit Center  534 is at   1.444943  1.710188  1.726839
      ESP Fit Center  535 is at   1.200637  1.351856  1.726839
      ESP Fit Center  536 is at   1.072804  0.937434  1.726839
      ESP Fit Center  537 is at   3.713590 -0.098998  1.726839
      ESP Fit Center  538 is at   3.901761  0.291743  1.726839
      ESP Fit Center  539 is at   4.134232  0.720589  1.321655
      ESP Fit Center  540 is at   4.078938  1.140589  1.321655
      ESP Fit Center  541 is at   3.916824  1.531967  1.321655
      ESP Fit Center  542 is at   3.658938  1.868050  1.321655
      ESP Fit Center  543 is at   3.322854  2.125936  1.321655
      ESP Fit Center  544 is at   2.931477  2.288050  1.321655
      ESP Fit Center  545 is at   2.511477  2.343344  1.321655
      ESP Fit Center  546 is at   2.091477  2.288050  1.321655
      ESP Fit Center  547 is at   1.700099  2.125936  1.321655
      ESP Fit Center  548 is at   1.364015  1.868050  1.321655
      ESP Fit Center  549 is at   4.138696  1.138388  0.886839
      ESP Fit Center  550 is at   3.983672  1.529935  0.886839
      ESP Fit Center  551 is at   3.736144  1.870628  0.886839
      ESP Fit Center  552 is at   3.411666  2.139060  0.886839
      ESP Fit Center  553 is at   3.030625  2.318364  0.886839
      ESP Fit Center  554 is at   2.616965  2.397274  0.886839
      ESP Fit Center  555 is at   2.196676  2.370832  0.886839
      ESP Fit Center  556 is at   1.796167  2.240699  0.886839
      ESP Fit Center  557 is at   3.916824  1.531967  0.452023
      ESP Fit Center  558 is at   3.658938  1.868050  0.452023
      ESP Fit Center  559 is at   3.322854  2.125936  0.452023
      ESP Fit Center  560 is at   2.931477  2.288050  0.452023
      ESP Fit Center  561 is at   2.511477  2.343344  0.452023
      ESP Fit Center  562 is at   2.091477  2.288050  0.452023
      ESP Fit Center  563 is at   1.700099  2.125936  0.452023
      ESP Fit Center  564 is at   1.172110 -1.386814  2.571402
      ESP Fit Center  565 is at   1.606926 -1.386814  2.514157
      ESP Fit Center  566 is at   1.389518 -1.010252  2.514157
      ESP Fit Center  567 is at   0.954702 -1.010252  2.514157
      ESP Fit Center  568 is at   0.737294 -1.386814  2.514157
      ESP Fit Center  569 is at   0.954702 -1.763376  2.514157
      ESP Fit Center  570 is at   1.389518 -1.763376  2.514157
      ESP Fit Center  571 is at   2.012110 -1.386814  2.346325
      ESP Fit Center  572 is at   1.899572 -0.966814  2.346325
      ESP Fit Center  573 is at   1.592110 -0.659353  2.346325
      ESP Fit Center  574 is at   1.172110 -0.546814  2.346325
      ESP Fit Center  575 is at   0.752110 -0.659353  2.346325
      ESP Fit Center  576 is at   0.444649 -0.966814  2.346325
      ESP Fit Center  577 is at   0.332110 -1.386814  2.346325
      ESP Fit Center  578 is at   0.444649 -1.806814  2.346325
      ESP Fit Center  579 is at   0.752110 -2.114275  2.346325
      ESP Fit Center  580 is at   1.172110 -2.226814  2.346325
      ESP Fit Center  581 is at   1.592110 -2.114275  2.346325
      ESP Fit Center  582 is at   1.899572 -1.806814  2.346325
      ESP Fit Center  583 is at   2.360050 -1.386814  2.079341
      ESP Fit Center  584 is at   2.279831 -0.957681  2.079341
      ESP Fit Center  585 is at   2.050008 -0.586504  2.079341
      ESP Fit Center  586 is at   1.701621 -0.323414  2.079341
      ESP Fit Center  587 is at   1.281720 -0.203942  2.079341
      ESP Fit Center  588 is at   0.847015 -0.244223  2.079341
      ESP Fit Center  589 is at   0.456217 -0.438818  2.079341
      ESP Fit Center  590 is at   0.162104 -0.761444  2.079341
      ESP Fit Center  591 is at   0.004398 -1.168531  2.079341
      ESP Fit Center  592 is at   0.004398 -1.605097  2.079341
      ESP Fit Center  593 is at   0.162104 -2.012183  2.079341
      ESP Fit Center  594 is at   0.456217 -2.334810  2.079341
      ESP Fit Center  595 is at   0.847015 -2.529405  2.079341
      ESP Fit Center  596 is at   1.281720 -2.569686  2.079341
      ESP Fit Center  597 is at   1.701621 -2.450214  2.079341
      ESP Fit Center  598 is at   2.050008 -2.187124  2.079341
      ESP Fit Center  599 is at   2.279831 -1.815947  2.079341
      ESP Fit Center  600 is at   2.627033 -1.386814  1.731402
      ESP Fit Center  601 is at  -0.266562 -1.169969  1.731402
      ESP Fit Center  602 is at  -0.266562 -1.603659  1.731402
      ESP Fit Center  603 is at  -0.138730 -2.018081  1.731402
      ESP Fit Center  604 is at   0.105577 -2.376413  1.731402
      ESP Fit Center  605 is at   0.444649 -2.646814  1.731402
      ESP Fit Center  606 is at   0.848360 -2.805259  1.731402
      ESP Fit Center  607 is at   1.280837 -2.837668  1.731402
      ESP Fit Center  608 is at   1.703653 -2.741163  1.731402
      ESP Fit Center  609 is at   2.079240 -2.524318  1.731402
      ESP Fit Center  610 is at   2.374224 -2.206401  1.731402
      ESP Fit Center  611 is at   2.562395 -1.815660  1.731402
      ESP Fit Center  612 is at  -0.233237 -2.198192  1.326218
      ESP Fit Center  613 is at   0.024649 -2.534275  1.326218
      ESP Fit Center  614 is at   0.360733 -2.792161  1.326218
      ESP Fit Center  615 is at   0.752110 -2.954275  1.326218
      ESP Fit Center  616 is at   1.172110 -3.009569  1.326218
      ESP Fit Center  617 is at   1.592110 -2.954275  1.326218
      ESP Fit Center  618 is at   1.983488 -2.792161  1.326218
      ESP Fit Center  619 is at   2.319572 -2.534275  1.326218
      ESP Fit Center  620 is at   2.577458 -2.198192  1.326218
      ESP Fit Center  621 is at   2.739572 -1.806814  1.326218
      ESP Fit Center  622 is at  -0.187038 -2.374293  0.891402
      ESP Fit Center  623 is at   0.101238 -2.681276  0.891402
      ESP Fit Center  624 is at   0.456801 -2.906923  0.891402
      ESP Fit Center  625 is at   0.857310 -3.037057  0.891402
      ESP Fit Center  626 is at   1.277599 -3.063499  0.891402
      ESP Fit Center  627 is at   1.691259 -2.984589  0.891402
      ESP Fit Center  628 is at   2.072299 -2.805285  0.891402
      ESP Fit Center  629 is at   2.396778 -2.536853  0.891402
      ESP Fit Center  630 is at   2.644306 -2.196160  0.891402
      ESP Fit Center  631 is at   0.024649 -2.534275  0.456586
      ESP Fit Center  632 is at   0.360733 -2.792161  0.456586
      ESP Fit Center  633 is at   0.752110 -2.954275  0.456586
      ESP Fit Center  634 is at   1.172110 -3.009569  0.456586
      ESP Fit Center  635 is at   1.592110 -2.954275  0.456586
      ESP Fit Center  636 is at   1.983488 -2.792161  0.456586
      ESP Fit Center  637 is at   2.319572 -2.534275  0.456586
      ESP Fit Center  638 is at   0.025440 -2.533429 -0.458081
      ESP Fit Center  639 is at   0.361524 -2.791315 -0.458081
      ESP Fit Center  640 is at   0.752901 -2.953429 -0.458081
      ESP Fit Center  641 is at   1.172901 -3.008723 -0.458081
      ESP Fit Center  642 is at   1.592901 -2.953429 -0.458081
      ESP Fit Center  643 is at   1.984279 -2.791315 -0.458081
      ESP Fit Center  644 is at   2.320363 -2.533429 -0.458081
      ESP Fit Center  645 is at  -0.186247 -2.373446 -0.892897
      ESP Fit Center  646 is at   0.102029 -2.680429 -0.892897
      ESP Fit Center  647 is at   0.457592 -2.906077 -0.892897
      ESP Fit Center  648 is at   0.858101 -3.036210 -0.892897
      ESP Fit Center  649 is at   1.278389 -3.062652 -0.892897
      ESP Fit Center  650 is at   1.692050 -2.983742 -0.892897
      ESP Fit Center  651 is at   2.073090 -2.804438 -0.892897
      ESP Fit Center  652 is at   2.397569 -2.536006 -0.892897
      ESP Fit Center  653 is at   2.645096 -2.195313 -0.892897
      ESP Fit Center  654 is at  -0.232446 -2.197345 -1.327713
      ESP Fit Center  655 is at   0.025440 -2.533429 -1.327713
      ESP Fit Center  656 is at   0.361524 -2.791315 -1.327713
      ESP Fit Center  657 is at   0.752901 -2.953429 -1.327713
      ESP Fit Center  658 is at   1.172901 -3.008723 -1.327713
      ESP Fit Center  659 is at   1.592901 -2.953429 -1.327713
      ESP Fit Center  660 is at   1.984279 -2.791315 -1.327713
      ESP Fit Center  661 is at   2.320363 -2.533429 -1.327713
      ESP Fit Center  662 is at   2.578249 -2.197345 -1.327713
      ESP Fit Center  663 is at   2.740363 -1.805967 -1.327713
      ESP Fit Center  664 is at   2.627824 -1.385967 -1.732897
      ESP Fit Center  665 is at  -0.265771 -1.169122 -1.732897
      ESP Fit Center  666 is at  -0.265771 -1.602812 -1.732897
      ESP Fit Center  667 is at  -0.137939 -2.017234 -1.732897
      ESP Fit Center  668 is at   0.106367 -2.375566 -1.732897
      ESP Fit Center  669 is at   0.445440 -2.645967 -1.732897
      ESP Fit Center  670 is at   0.849150 -2.804412 -1.732897
      ESP Fit Center  671 is at   1.281628 -2.836822 -1.732897
      ESP Fit Center  672 is at   1.704444 -2.740316 -1.732897
      ESP Fit Center  673 is at   2.080031 -2.523472 -1.732897
      ESP Fit Center  674 is at   2.375015 -2.205554 -1.732897
      ESP Fit Center  675 is at   2.563186 -1.814813 -1.732897
      ESP Fit Center  676 is at   2.360841 -1.385967 -2.080836
      ESP Fit Center  677 is at   2.280622 -0.956834 -2.080836
      ESP Fit Center  678 is at   2.050799 -0.585658 -2.080836
      ESP Fit Center  679 is at   1.702411 -0.322567 -2.080836
      ESP Fit Center  680 is at   1.282510 -0.203095 -2.080836
      ESP Fit Center  681 is at   0.847806 -0.243377 -2.080836
      ESP Fit Center  682 is at   0.457008 -0.437971 -2.080836
      ESP Fit Center  683 is at   0.162895 -0.760598 -2.080836
      ESP Fit Center  684 is at   0.005189 -1.167684 -2.080836
      ESP Fit Center  685 is at   0.005189 -1.604250 -2.080836
      ESP Fit Center  686 is at   0.162895 -2.011337 -2.080836
      ESP Fit Center  687 is at   0.457008 -2.333963 -2.080836
      ESP Fit Center  688 is at   0.847806 -2.528558 -2.080836
      ESP Fit Center  689 is at   1.282510 -2.568839 -2.080836
      ESP Fit Center  690 is at   1.702411 -2.449367 -2.080836
      ESP Fit Center  691 is at   2.050799 -2.186277 -2.080836
      ESP Fit Center  692 is at   2.280622 -1.815100 -2.080836
      ESP Fit Center  693 is at   2.012901 -1.385967 -2.347819
      ESP Fit Center  694 is at   1.900363 -0.965967 -2.347819
      ESP Fit Center  695 is at   1.592901 -0.658506 -2.347819
      ESP Fit Center  696 is at   1.172901 -0.545967 -2.347819
      ESP Fit Center  697 is at   0.752901 -0.658506 -2.347819
      ESP Fit Center  698 is at   0.445440 -0.965967 -2.347819
      ESP Fit Center  699 is at   0.332901 -1.385967 -2.347819
      ESP Fit Center  700 is at   0.445440 -1.805967 -2.347819
      ESP Fit Center  701 is at   0.752901 -2.113429 -2.347819
      ESP Fit Center  702 is at   1.172901 -2.225967 -2.347819
      ESP Fit Center  703 is at   1.592901 -2.113429 -2.347819
      ESP Fit Center  704 is at   1.900363 -1.805967 -2.347819
      ESP Fit Center  705 is at   1.607717 -1.385967 -2.515652
      ESP Fit Center  706 is at   1.390309 -1.009405 -2.515652
      ESP Fit Center  707 is at   0.955493 -1.009405 -2.515652
      ESP Fit Center  708 is at   0.738085 -1.385967 -2.515652
      ESP Fit Center  709 is at   0.955493 -1.762529 -2.515652
      ESP Fit Center  710 is at   1.390309 -1.762529 -2.515652
      ESP Fit Center  711 is at   1.172901 -1.385967 -2.572897
      ESP Fit Center  712 is at  -3.641322 -0.771441  1.622066
      ESP Fit Center  713 is at  -3.423914 -1.148003  1.622066
      ESP Fit Center  714 is at  -3.933967 -0.351441  1.454233
      ESP Fit Center  715 is at  -4.046506 -0.771441  1.454233
      ESP Fit Center  716 is at  -3.933967 -1.191441  1.454233
      ESP Fit Center  717 is at  -3.626506 -1.498902  1.454233
      ESP Fit Center  718 is at  -3.206506 -1.611441  1.454233
      ESP Fit Center  719 is at  -2.786506 -1.498902  1.454233
      ESP Fit Center  720 is at  -4.216512 -0.146071  1.187250
      ESP Fit Center  721 is at  -4.374218 -0.553158  1.187250
      ESP Fit Center  722 is at  -4.374218 -0.989724  1.187250
      ESP Fit Center  723 is at  -4.216512 -1.396811  1.187250
      ESP Fit Center  724 is at  -3.922399 -1.719437  1.187250
      ESP Fit Center  725 is at  -3.531601 -1.914032  1.187250
      ESP Fit Center  726 is at  -3.096897 -1.954313  1.187250
      ESP Fit Center  727 is at  -2.676996 -1.834841  1.187250
      ESP Fit Center  728 is at  -4.517346 -0.140174  0.839310
      ESP Fit Center  729 is at  -4.645178 -0.554596  0.839310
      ESP Fit Center  730 is at  -4.645178 -0.988286  0.839310
      ESP Fit Center  731 is at  -4.517346 -1.402708  0.839310
      ESP Fit Center  732 is at  -4.273040 -1.761040  0.839310
      ESP Fit Center  733 is at  -3.933967 -2.031441  0.839310
      ESP Fit Center  734 is at  -3.530257 -2.189886  0.839310
      ESP Fit Center  735 is at  -3.097779 -2.222295  0.839310
      ESP Fit Center  736 is at  -2.674963 -2.125790  0.839310
      ESP Fit Center  737 is at  -4.611853  0.039937  0.434126
      ESP Fit Center  738 is at  -4.773967 -0.351441  0.434126
      ESP Fit Center  739 is at  -4.829261 -0.771441  0.434126
      ESP Fit Center  740 is at  -4.773967 -1.191441  0.434126
      ESP Fit Center  741 is at  -4.611853 -1.582819  0.434126
      ESP Fit Center  742 is at  -4.353967 -1.918902  0.434126
      ESP Fit Center  743 is at  -4.017884 -2.176788  0.434126
      ESP Fit Center  744 is at  -3.626506 -2.338902  0.434126
      ESP Fit Center  745 is at  -3.206506 -2.394196  0.434126
      ESP Fit Center  746 is at  -2.786506 -2.338902  0.434126
      ESP Fit Center  747 is at  -2.395128 -2.176788  0.434126
      ESP Fit Center  748 is at  -4.565654  0.216038 -0.000690
      ESP Fit Center  749 is at  -4.768530 -0.152992 -0.000690
[...]
 3902 Fit       0.003944
 3903 Fit       0.003081
 3904 Fit      -0.010156
 3905 Fit      -0.013422
 3906 Fit      -0.017945
 3907 Fit      -0.003926
 3908 Fit      -0.005107
 3909 Fit      -0.006646
 3910 Fit      -0.008674
 3911 Fit      -0.011373
 3912 Fit      -0.015005
 3913 Fit      -0.019965
 3914 Fit      -0.002543
 3915 Fit      -0.003425
 3916 Fit      -0.004558
 3917 Fit      -0.006039
 3918 Fit      -0.007986
 3919 Fit      -0.010555
 3920 Fit      -0.013954
 3921 Fit      -0.018477
 3922 Fit      -0.000845
 3923 Fit      -0.001440
 3924 Fit      -0.002135
 3925 Fit      -0.003010
 3926 Fit      -0.004150
 3927 Fit      -0.005645
 3928 Fit      -0.007600
 3929 Fit      -0.010141
 3930 Fit      -0.013418
 3931 Fit      -0.017583
 3932 Fit       0.000032
 3933 Fit      -0.000491
 3934 Fit      -0.001054
 3935 Fit      -0.001731
 3936 Fit      -0.002596
 3937 Fit      -0.003722
 3938 Fit      -0.005182
 3939 Fit      -0.007051
 3940 Fit      -0.009392
 3941 Fit      -0.012236
 3942 Fit      -0.015503
 3943 Fit       0.000347
 3944 Fit      -0.000182
 3945 Fit      -0.000778
 3946 Fit      -0.001520
 3947 Fit      -0.002483
 3948 Fit      -0.003732
 3949 Fit      -0.005313
 3950 Fit      -0.007235
 3951 Fit      -0.009417
 3952 Fit      -0.011594
 3953 Fit      -0.013182
 3954 Fit       0.000889
 3955 Fit       0.000650
 3956 Fit       0.000085
 3957 Fit      -0.000565
 3958 Fit      -0.001383
 3959 Fit      -0.002428
 3960 Fit      -0.003723
 3961 Fit      -0.005218
 3962 Fit      -0.006729
 3963 Fit      -0.007855
 3964 Fit      -0.007942
 3965 Fit      -0.006300
 3966 Fit      -0.002829
 3967 Fit       0.001870
 3968 Fit       0.001216
 3969 Fit       0.000903
 3970 Fit       0.000254
 3971 Fit      -0.000504
 3972 Fit      -0.001437
 3973 Fit      -0.002538
 3974 Fit      -0.003652
 3975 Fit      -0.004415
 3976 Fit      -0.004255
 3977 Fit      -0.002707
 3978 Fit      -0.000010
 3979 Fit       0.002774
 3980 Fit       0.004659
 3981 Fit       0.005369
 3982 Fit       0.005074
 3983 Fit       0.004194
 3984 Fit       0.003181
 3985 Fit       0.002284
 3986 Fit       0.001546
 3987 Fit       0.001076
 3988 Fit       0.000268
 3989 Fit      -0.000648
 3990 Fit      -0.001562
 3991 Fit      -0.002018
 3992 Fit      -0.001352
 3993 Fit       0.000517
 3994 Fit       0.002519
 3995 Fit       0.003538
 3996 Fit       0.003425
 3997 Fit       0.002697
 3998 Fit       0.001862
 3999 Fit       0.001143
 4000 Fit       0.000173
 4001 Fit      -0.000228
 4002 Fit       0.000879
 4003 Fit       0.002166
 4004 Fit       0.002026
 4005 Fit       0.001083
 4006 Fit       0.001085
 4007 Fit       0.001145
 4008 Fit       0.000175
 4009 Fit      -0.000226
 4010 Fit       0.000881
 4011 Fit       0.002167
 4012 Fit       0.002027
 4013 Fit       0.001078
 4014 Fit       0.000269
 4015 Fit      -0.000645
 4016 Fit      -0.001559
 4017 Fit      -0.002015
 4018 Fit      -0.001348
 4019 Fit       0.000519
 4020 Fit       0.002519
 4021 Fit       0.003537
 4022 Fit       0.003424
 4023 Fit       0.002697
 4024 Fit       0.001863
 4025 Fit       0.000905
 4026 Fit       0.000255
 4027 Fit      -0.000502
 4028 Fit      -0.001436
 4029 Fit      -0.002535
 4030 Fit      -0.003649
 4031 Fit      -0.004410
 4032 Fit      -0.004250
 4033 Fit      -0.002702
 4034 Fit      -0.000007
 4035 Fit       0.002773
 4036 Fit       0.004656
 4037 Fit       0.005365
 4038 Fit       0.005070
 4039 Fit       0.004192
 4040 Fit       0.003181
 4041 Fit       0.002285
 4042 Fit       0.001547
 4043 Fit       0.000651
 4044 Fit       0.000087
 4045 Fit      -0.000564
 4046 Fit      -0.001382
 4047 Fit      -0.002426
 4048 Fit      -0.003721
 4049 Fit      -0.005215
 4050 Fit      -0.006725
 4051 Fit      -0.007848
 4052 Fit      -0.007933
 4053 Fit      -0.006291
 4054 Fit      -0.002821
 4055 Fit       0.001870
 4056 Fit       0.001217
 4057 Fit       0.000349
 4058 Fit      -0.000180
 4059 Fit      -0.000777
 4060 Fit      -0.001519
 4061 Fit      -0.002482
 4062 Fit      -0.003730
 4063 Fit      -0.005311
 4064 Fit      -0.007232
 4065 Fit      -0.009412
 4066 Fit      -0.011587
 4067 Fit      -0.013171
 4068 Fit       0.000891
 4069 Fit       0.000033
 4070 Fit      -0.000490
 4071 Fit      -0.001053
 4072 Fit      -0.001730
 4073 Fit      -0.002596
 4074 Fit      -0.003722
 4075 Fit      -0.005182
 4076 Fit      -0.007050
 4077 Fit      -0.009390
 4078 Fit      -0.012232
 4079 Fit      -0.015496
 4080 Fit      -0.000844
 4081 Fit      -0.001440
 4082 Fit      -0.002134
 4083 Fit      -0.003010
 4084 Fit      -0.004150
 4085 Fit      -0.005644
 4086 Fit      -0.007599
 4087 Fit      -0.010140
 4088 Fit      -0.013416
 4089 Fit      -0.017579
 4090 Fit      -0.002543
 4091 Fit      -0.003425
 4092 Fit      -0.004558
 4093 Fit      -0.006039
 4094 Fit      -0.007987
 4095 Fit      -0.010555
 4096 Fit      -0.013954
 4097 Fit      -0.018476
 4098 Fit      -0.003926
 4099 Fit      -0.005107
 4100 Fit      -0.006646
 4101 Fit      -0.008675
 4102 Fit      -0.011374
 4103 Fit      -0.015005
 4104 Fit      -0.019966
 4105 Fit      -0.010157
 4106 Fit      -0.013422
 4107 Fit      -0.017947
 4108 Fit       0.006852
 4109 Fit       0.006932
 4110 Fit       0.006625
 4111 Fit       0.006583
 4112 Fit       0.006650
 4113 Fit       0.006884
 4114 Fit       0.007110
 4115 Fit       0.006917
 4116 Fit       0.006531
 4117 Fit       0.006250
 4118 Fit       0.006177
 4119 Fit       0.006343
 4120 Fit       0.006411
 4121 Fit       0.006263
 4122 Fit       0.006318
 4123 Fit       0.006695
 4124 Fit       0.007116
 4125 Fit       0.007327
 4126 Fit       0.007241
 4127 Fit       0.006816
 4128 Fit       0.006385
 4129 Fit       0.006056
 4130 Fit       0.005816
 4131 Fit       0.005750
 4132 Fit       0.006186
 4133 Fit       0.006435
 4134 Fit       0.006098
 4135 Fit       0.005551
 4136 Fit       0.005378
 4137 Fit       0.005697
 4138 Fit       0.006274
 4139 Fit       0.006853
 4140 Fit       0.007278
 4141 Fit       0.007485
 4142 Fit       0.007459
 4143 Fit       0.007217
 4144 Fit       0.006639
 4145 Fit       0.004739
 4146 Fit       0.003895
 4147 Fit       0.003895
 4148 Fit       0.004499
 4149 Fit       0.005338
 4150 Fit       0.006155
 4151 Fit       0.006822
 4152 Fit       0.007290
 4153 Fit       0.007550
 4154 Fit       0.007608
 4155 Fit       0.007468
 4156 Fit       0.007134
 4157 Fit       0.001266
 4158 Fit       0.002262
 4159 Fit       0.003533
 4160 Fit       0.004749
 4161 Fit       0.005772
 4162 Fit       0.006563
 4163 Fit       0.007128
 4164 Fit       0.007486
 4165 Fit       0.007656
 4166 Fit       0.007649
 4167 Fit       0.007456
 4168 Fit       0.007048
 4169 Fit       0.000799
 4170 Fit       0.002641
 4171 Fit       0.004149
 4172 Fit       0.005329
 4173 Fit       0.006221
 4174 Fit       0.006868
 4175 Fit       0.007313
 4176 Fit       0.007587
 4177 Fit       0.007712
 4178 Fit       0.007691
 4179 Fit       0.007492
 4180 Fit       0.000290
 4181 Fit       0.002478
 4182 Fit       0.004113
 4183 Fit       0.005326
 4184 Fit       0.006216
 4185 Fit       0.006856
 4186 Fit       0.007303
 4187 Fit       0.007600
 4188 Fit       0.007775
 4189 Fit       0.007833
 4190 Fit      -0.002731
 4191 Fit       0.000388
 4192 Fit       0.002606
 4193 Fit       0.004208
 4194 Fit       0.005374
 4195 Fit       0.006226
 4196 Fit       0.006849
 4197 Fit       0.007306
 4198 Fit       0.007649
 4199 Fit       0.007917
 4200 Fit       0.008135
 4201 Fit       0.000014
 4202 Fit       0.002374
 4203 Fit       0.004042
 4204 Fit       0.005246
 4205 Fit       0.006129
 4206 Fit       0.006789
 4207 Fit       0.007304
 4208 Fit       0.007735
 4209 Fit       0.001056
 4210 Fit       0.003208
 4211 Fit       0.004713
 4212 Fit       0.005797
 4213 Fit       0.006604
 4214 Fit       0.001057
 4215 Fit       0.003209
 4216 Fit       0.004715
 4217 Fit       0.005799
 4218 Fit       0.006606
 4219 Fit       0.000017
 4220 Fit       0.002376
 4221 Fit       0.004044
 4222 Fit       0.005247
 4223 Fit       0.006130
 4224 Fit       0.006791
 4225 Fit       0.007305
 4226 Fit       0.007737
 4227 Fit      -0.002723
 4228 Fit       0.000393
 4229 Fit       0.002610
 4230 Fit       0.004210
 4231 Fit       0.005376
 4232 Fit       0.006227
 4233 Fit       0.006850
 4234 Fit       0.007308
 4235 Fit       0.007651
 4236 Fit       0.007918
 4237 Fit       0.008137
 4238 Fit       0.000299
 4239 Fit       0.002483
 4240 Fit       0.004117
 4241 Fit       0.005329
 4242 Fit       0.006218
 4243 Fit       0.006858
 4244 Fit       0.007305
 4245 Fit       0.007602
 4246 Fit       0.007777
 4247 Fit       0.007835
 4248 Fit       0.000812
 4249 Fit       0.002650
 4250 Fit       0.004155
 4251 Fit       0.005334
 4252 Fit       0.006224
 4253 Fit       0.006871
 4254 Fit       0.007315
 4255 Fit       0.007589
 4256 Fit       0.007714
 4257 Fit       0.007693
 4258 Fit       0.007495
 4259 Fit       0.001284
 4260 Fit       0.002276
 4261 Fit       0.003543
 4262 Fit       0.004756
 4263 Fit       0.005777
 4264 Fit       0.006567
 4265 Fit       0.007131
 4266 Fit       0.007489
 4267 Fit       0.007659
 4268 Fit       0.007652
 4269 Fit       0.007459
 4270 Fit       0.007051
 4271 Fit       0.006641
 4272 Fit       0.004754
 4273 Fit       0.003910
 4274 Fit       0.003908
 4275 Fit       0.004510
 4276 Fit       0.005346
 4277 Fit       0.006161
 4278 Fit       0.006827
 4279 Fit       0.007294
 4280 Fit       0.007554
 4281 Fit       0.007611
 4282 Fit       0.007471
 4283 Fit       0.007136
 4284 Fit       0.006819
 4285 Fit       0.006386
 4286 Fit       0.006056
 4287 Fit       0.005815
 4288 Fit       0.005750
 4289 Fit       0.006188
 4290 Fit       0.006440
 4291 Fit       0.006107
 4292 Fit       0.005562
 4293 Fit       0.005388
 4294 Fit       0.005705
 4295 Fit       0.006281
 4296 Fit       0.006858
 4297 Fit       0.007283
 4298 Fit       0.007488
 4299 Fit       0.007462
 4300 Fit       0.007219
 4301 Fit       0.006919
 4302 Fit       0.006533
 4303 Fit       0.006251
 4304 Fit       0.006178
 4305 Fit       0.006346
 4306 Fit       0.006417
 4307 Fit       0.006270
 4308 Fit       0.006325
 4309 Fit       0.006701
 4310 Fit       0.007121
 4311 Fit       0.007331
 4312 Fit       0.007244
 4313 Fit       0.006935
 4314 Fit       0.006628
 4315 Fit       0.006587
 4316 Fit       0.006655
 4317 Fit       0.006889
 4318 Fit       0.007114
 4319 Fit       0.006856
 4320 Fit       0.008129
 4321 Fit       0.007390
 4322 Fit       0.006390
 4323 Fit       0.005057
 4324 Fit       0.009000
 4325 Fit       0.008506
 4326 Fit       0.007865
 4327 Fit       0.006990
 4328 Fit       0.005804
 4329 Fit       0.004233
 4330 Fit       0.009848
 4331 Fit       0.009481
 4332 Fit       0.009084
 4333 Fit       0.008572
 4334 Fit       0.007871
 4335 Fit       0.006915
 4336 Fit       0.005628
 4337 Fit       0.003913
 4338 Fit       0.001628
 4339 Fit       0.010176
 4340 Fit       0.009876
 4341 Fit       0.009554
 4342 Fit       0.009144
 4343 Fit       0.008587
 4344 Fit       0.007829
 4345 Fit       0.006811
 4346 Fit       0.005460
 4347 Fit       0.003670
 4348 Fit       0.001264
 4349 Fit       0.010747
 4350 Fit       0.010429
 4351 Fit       0.010163
 4352 Fit       0.009877
 4353 Fit       0.009511
 4354 Fit       0.009011
 4355 Fit       0.008325
 4356 Fit       0.007400
 4357 Fit       0.006169
 4358 Fit       0.004535
 4359 Fit       0.002341
 4360 Fit      -0.000689
 4361 Fit       0.010872
 4362 Fit       0.010584
 4363 Fit       0.010343
 4364 Fit       0.010085
 4365 Fit       0.009756
 4366 Fit       0.009308
 4367 Fit       0.008695
 4368 Fit       0.007871
 4369 Fit       0.006779
 4370 Fit       0.005338
 4371 Fit       0.003426
 4372 Fit       0.000829
 4373 Fit       0.010764
 4374 Fit       0.010518
 4375 Fit       0.010286
 4376 Fit       0.010013
 4377 Fit       0.009650
 4378 Fit       0.009154
 4379 Fit       0.008483
 4380 Fit       0.007589
 4381 Fit       0.006414
 4382 Fit       0.004871
 4383 Fit       0.002820
 4384 Fit       0.000021
 4385 Fit       0.010870
 4386 Fit       0.010584
 4387 Fit       0.010343
 4388 Fit       0.010086
 4389 Fit       0.009758
 4390 Fit       0.009310
 4391 Fit       0.008698
 4392 Fit       0.007874
 4393 Fit       0.006782
 4394 Fit       0.005342
 4395 Fit       0.003431
 4396 Fit       0.000836
 4397 Fit       0.010744
 4398 Fit       0.010429
 4399 Fit       0.010164
 4400 Fit       0.009880
 4401 Fit       0.009514
 4402 Fit       0.009014
 4403 Fit       0.008329
 4404 Fit       0.007405
 4405 Fit       0.006176
 4406 Fit       0.004544
 4407 Fit       0.002353
 4408 Fit      -0.000673
 4409 Fit       0.010174
 4410 Fit       0.009877
 4411 Fit       0.009557
 4412 Fit       0.009148
 4413 Fit       0.008593
 4414 Fit       0.007836
 4415 Fit       0.006819
 4416 Fit       0.005471
 4417 Fit       0.003683
 4418 Fit       0.001282
 4419 Fit       0.009845
 4420 Fit       0.009482
 4421 Fit       0.009087
 4422 Fit       0.008577
 4423 Fit       0.007879
 4424 Fit       0.006924
 4425 Fit       0.005639
 4426 Fit       0.003928
 4427 Fit       0.001649
 4428 Fit       0.009000
 4429 Fit       0.008510
 4430 Fit       0.007871
 4431 Fit       0.006999
 4432 Fit       0.005816
 4433 Fit       0.004249
 4434 Fit       0.008130
 4435 Fit       0.007396
 4436 Fit       0.006400
 4437 Fit       0.005070
 4438 Fit      -0.011163
 4439 Fit      -0.005545
 4440 Fit      -0.001255
 4441 Fit      -0.011335
 4442 Fit      -0.006123
 4443 Fit      -0.002085
 4444 Fit       0.001116
 4445 Fit       0.003703
 4446 Fit       0.005834
 4447 Fit      -0.013545
 4448 Fit      -0.008116
 4449 Fit      -0.003867
 4450 Fit      -0.000499
 4451 Fit       0.002203
 4452 Fit       0.004397
 4453 Fit       0.006195
 4454 Fit       0.007683
 4455 Fit      -0.013257
 4456 Fit      -0.008260
 4457 Fit      -0.004198
 4458 Fit      -0.000918
 4459 Fit       0.001730
 4460 Fit       0.003870
 4461 Fit       0.005601
 4462 Fit       0.006999
 4463 Fit       0.008124
 4464 Fit       0.009025
 4465 Fit      -0.011761
 4466 Fit      -0.007700
 4467 Fit      -0.004121
 4468 Fit      -0.001094
 4469 Fit       0.001410
 4470 Fit       0.003454
 4471 Fit       0.005101
 4472 Fit       0.006412
 4473 Fit       0.007433
 4474 Fit       0.008205
 4475 Fit       0.008756
 4476 Fit      -0.010618
 4477 Fit      -0.008078
 4478 Fit      -0.005083
 4479 Fit      -0.002180
 4480 Fit       0.000389
 4481 Fit       0.002549
 4482 Fit       0.004302
 4483 Fit       0.005679
 4484 Fit       0.006718
 4485 Fit       0.007455
 4486 Fit       0.007913
 4487 Fit       0.008103
 4488 Fit      -0.002932
 4489 Fit      -0.005313
 4490 Fit      -0.005803
 4491 Fit      -0.004677
 4492 Fit      -0.002675
 4493 Fit      -0.000430
 4494 Fit       0.001684
 4495 Fit       0.003493
 4496 Fit       0.004940
 4497 Fit       0.006020
 4498 Fit       0.006750
 4499 Fit       0.007149
 4500 Fit       0.007227
 4501 Fit       0.006977
 4502 Fit       0.001169
 4503 Fit      -0.000791
 4504 Fit      -0.001873
 4505 Fit      -0.001557
 4506 Fit      -0.000206
 4507 Fit       0.001556
 4508 Fit       0.003264
 4509 Fit       0.004672
 4510 Fit       0.005685
 4511 Fit       0.006280
 4512 Fit       0.006464
 4513 Fit       0.006258
 4514 Fit       0.005705
 4515 Fit       0.004922
 4516 Fit       0.004145
 4517 Fit       0.003658
 4518 Fit       0.003421
 4519 Fit       0.002776
 4520 Fit       0.002084
 4521 Fit       0.000961
 4522 Fit       0.000929
 4523 Fit       0.002037
 4524 Fit       0.003544
 4525 Fit       0.004815
 4526 Fit       0.005549
 4527 Fit       0.005683
 4528 Fit       0.005298
 4529 Fit       0.004627
 4530 Fit       0.003965
 4531 Fit       0.003247
 4532 Fit       0.003026
 4533 Fit       0.002703
 4534 Fit       0.003768
 4535 Fit       0.004771
 4536 Fit       0.004751
 4537 Fit       0.004012
 4538 Fit       0.003929
 4539 Fit       0.003933
 4540 Fit       0.003031
 4541 Fit       0.002711
 4542 Fit       0.003773
 4543 Fit       0.004773
 4544 Fit       0.004751
 4545 Fit       0.004013
 4546 Fit       0.002090
 4547 Fit       0.000972
 4548 Fit       0.000941
 4549 Fit       0.002045
 4550 Fit       0.003551
 4551 Fit       0.004818
 4552 Fit       0.005550
 4553 Fit       0.005682
 4554 Fit       0.005296
 4555 Fit       0.004624
 4556 Fit       0.003961
 4557 Fit       0.003247
 4558 Fit       0.001178
 4559 Fit      -0.000774
 4560 Fit      -0.001855
 4561 Fit      -0.001541
 4562 Fit      -0.000193
 4563 Fit       0.001565
 4564 Fit       0.003270
 4565 Fit       0.004677
 4566 Fit       0.005687
 4567 Fit       0.006280
 4568 Fit       0.006461
 4569 Fit       0.006253
 4570 Fit       0.005698
 4571 Fit       0.004915
 4572 Fit       0.004137
 4573 Fit       0.003650
 4574 Fit       0.003414
 4575 Fit       0.002774
 4576 Fit      -0.002905
 4577 Fit      -0.005283
 4578 Fit      -0.005777
 4579 Fit      -0.004656
 4580 Fit      -0.002660
 4581 Fit      -0.000419
 4582 Fit       0.001692
 4583 Fit       0.003500
 4584 Fit       0.004944
 4585 Fit       0.006022
 4586 Fit       0.006750
 4587 Fit       0.007146
 4588 Fit       0.007220
 4589 Fit       0.006967
 4590 Fit      -0.010585
 4591 Fit      -0.008055
 4592 Fit      -0.005066
 4593 Fit      -0.002168
 4594 Fit       0.000398
 4595 Fit       0.002556
 4596 Fit       0.004307
 4597 Fit       0.005682
 4598 Fit       0.006719
 4599 Fit       0.007452
 4600 Fit       0.007907
 4601 Fit       0.008092
 4602 Fit      -0.011737
 4603 Fit      -0.007683
 4604 Fit      -0.004108
 4605 Fit      -0.001084
 4606 Fit       0.001419
 4607 Fit       0.003460
 4608 Fit       0.005106
 4609 Fit       0.006414
 4610 Fit       0.007432
 4611 Fit       0.008200
 4612 Fit       0.008747
 4613 Fit      -0.013237
 4614 Fit      -0.008244
 4615 Fit      -0.004185
 4616 Fit      -0.000907
 4617 Fit       0.001739
 4618 Fit       0.003877
 4619 Fit       0.005606
 4620 Fit       0.007001
 4621 Fit       0.008122
 4622 Fit       0.009019
 4623 Fit      -0.013528
 4624 Fit      -0.008101
 4625 Fit      -0.003853
 4626 Fit      -0.000487
 4627 Fit       0.002214
 4628 Fit       0.004406
 4629 Fit       0.006201
 4630 Fit       0.007686
 4631 Fit      -0.011317
 4632 Fit      -0.006105
 4633 Fit      -0.002068
 4634 Fit       0.001131
 4635 Fit       0.003717
 4636 Fit       0.005845
 4637 Fit      -0.011139
 4638 Fit      -0.005521
 4639 Fit      -0.001232
 -----------------------------------------------------------------
 Leave Link  602 at Thu Nov  2 13:04:40 2023, MaxMem=   134217728 cpu:               0.2 elap:               0.2

 Test job not archived.
 1\1\GINC-LAC-358\FOpt\RHF\6-31G(d)\C4H8O2\RAHNAMOU\02-Nov-2023\0\\#HF/
 6-31G* SCF=tight Pop=MK iop(6/33=2) iop(6/42=6) opt\\mobley_1075836\\0
 ,1\C,-0.8746562593,0.5467392041,0.359454636\C,-0.8825216117,0.55084346
 89,1.8829571331\C,-2.0605967968,1.2929553382,2.4663500957\O,-2.9151163
 07,1.8313970422,1.8398323427\O,-2.0320730679,1.2748163931,3.7925396262
 \C,-3.0858973202,1.938175403,4.4668849048\H,-0.0113226159,0.002623708,
 -0.0084220479\H,-1.7677507255,0.0763230345,-0.0336285058\H,-0.83502570
 67,1.5556926389,-0.0328097151\H,0.0187148932,1.0067671795,2.2819965462
 \H,-0.9052283352,-0.4592211214,2.2811847316\H,-2.8885210505,1.81123658
 3,5.5198966198\H,-4.0385524524,1.498447696,4.2086502585\H,-3.098452644
 2,2.9882034321,4.2121133742\\Version=ES64L-G16RevC.01\State=1-A\HF=-30
 5.8725994\RMSD=5.872e-09\RMSF=2.367e-05\Dipole=0.3989319,-0.2517949,0.
 5608385\Quadrupole=-0.3571603,0.0012579,0.3559024,0.3773535,-3.6150168
 ,2.2761399\PG=C01 [X(C4H8O2)]\\@


 IT IS A SIMPLE TASK TO MAKE THINGS COMPLEX,
 BUT A COMPLEX TASK TO MAKE THEM SIMPLE.
 Job cpu time:       0 days  0 hours  0 minutes 27.6 seconds.
 Elapsed time:       0 days  0 hours  0 minutes 27.5 seconds.
 File lengths (MBytes):  RWF=    272 Int=      0 D2E=      0 Chk=     32 Scr=     32
 Normal termination of Gaussian 16 at Thu Nov  2 13:04:40 2023.
