 Entering Gaussian System, Link 0=/opt/software/Gaussian/g16-AVX2-C.01/g16/g16
 Input=mobley_129464.com
 Output=mobley_129464.log
 Initial command:
 /opt/software/Gaussian/g16-AVX2-C.01/g16/l1.exe "/mnt/gs21/scratch/rahnamou/Gau-5295.inp" -scrdir="/mnt/gs21/scratch/rahnamou/"
 Entering Link 1 = /opt/software/Gaussian/g16-AVX2-C.01/g16/l1.exe PID=      5313.
  
 Copyright (c) 1988-2019, Gaussian, Inc.  All Rights Reserved.
  
 This is part of the Gaussian(R) 16 program.  It is based on
 the Gaussian(R) 09 system (copyright 2009, Gaussian, Inc.),
 the Gaussian(R) 03 system (copyright 2003, Gaussian, Inc.),
 the Gaussian(R) 98 system (copyright 1998, Gaussian, Inc.),
 the Gaussian(R) 94 system (copyright 1995, Gaussian, Inc.),
 the Gaussian 92(TM) system (copyright 1992, Gaussian, Inc.),
 the Gaussian 90(TM) system (copyright 1990, Gaussian, Inc.),
 the Gaussian 88(TM) system (copyright 1988, Gaussian, Inc.),
 the Gaussian 86(TM) system (copyright 1986, Carnegie Mellon
 University), and the Gaussian 82(TM) system (copyright 1983,
 Carnegie Mellon University). Gaussian is a federally registered
 trademark of Gaussian, Inc.
  
 This software contains proprietary and confidential information,
 including trade secrets, belonging to Gaussian, Inc.
  
 This software is provided under written license and may be
 used, copied, transmitted, or stored only in accord with that
 written license.
  
 The following legend is applicable only to US Government
 contracts under FAR:
  
                    RESTRICTED RIGHTS LEGEND
  
 Use, reproduction and disclosure by the US Government is
 subject to restrictions as set forth in subparagraphs (a)
 and (c) of the Commercial Computer Software - Restricted
 Rights clause in FAR 52.227-19.
  
 Gaussian, Inc.
 340 Quinnipiac St., Bldg. 40, Wallingford CT 06492
  
  
 ---------------------------------------------------------------
 Warning -- This program may not be used in any manner that
 competes with the business of Gaussian, Inc. or will provide
 assistance to any competitor of Gaussian, Inc.  The licensee
 of this program is prohibited from giving any competitor of
 Gaussian, Inc. access to this program.  By using this program,
 the user acknowledges that Gaussian, Inc. is engaged in the
 business of creating and licensing software in the field of
 computational chemistry and represents and warrants to the
 licensee that it is not a competitor of Gaussian, Inc. and that
 it will not use this program in any manner prohibited above.
 ---------------------------------------------------------------
  

 Cite this work as:
 Gaussian 16, Revision C.01,
 M. J. Frisch, G. W. Trucks, H. B. Schlegel, G. E. Scuseria, 
 M. A. Robb, J. R. Cheeseman, G. Scalmani, V. Barone, 
 G. A. Petersson, H. Nakatsuji, X. Li, M. Caricato, A. V. Marenich, 
 J. Bloino, B. G. Janesko, R. Gomperts, B. Mennucci, H. P. Hratchian, 
 J. V. Ortiz, A. F. Izmaylov, J. L. Sonnenberg, D. Williams-Young, 
 F. Ding, F. Lipparini, F. Egidi, J. Goings, B. Peng, A. Petrone, 
 T. Henderson, D. Ranasinghe, V. G. Zakrzewski, J. Gao, N. Rega, 
 G. Zheng, W. Liang, M. Hada, M. Ehara, K. Toyota, R. Fukuda, 
 J. Hasegawa, M. Ishida, T. Nakajima, Y. Honda, O. Kitao, H. Nakai, 
 T. Vreven, K. Throssell, J. A. Montgomery, Jr., J. E. Peralta, 
 F. Ogliaro, M. J. Bearpark, J. J. Heyd, E. N. Brothers, K. N. Kudin, 
 V. N. Staroverov, T. A. Keith, R. Kobayashi, J. Normand, 
 K. Raghavachari, A. P. Rendell, J. C. Burant, S. S. Iyengar, 
 J. Tomasi, M. Cossi, J. M. Millam, M. Klene, C. Adamo, R. Cammi, 
 J. W. Ochterski, R. L. Martin, K. Morokuma, O. Farkas, 
 J. B. Foresman, and D. J. Fox, Gaussian, Inc., Wallingford CT, 2019.
 
 ******************************************
 Gaussian 16:  ES64L-G16RevC.01  3-Jul-2019
                 2-Nov-2023 
 ******************************************
 %chk=mobley_129464.chk
 %mem=1GB
 %NProcShared=1
 Will use up to    1 processors via shared memory.
 -------------------------------------------------------
 #HF/6-31G* SCF=tight Pop=MK iop(6/33=2) iop(6/42=6) opt
 -------------------------------------------------------
 1/18=20,19=15,38=1/1,3;
 2/9=110,12=2,17=6,18=5,40=1/2;
 3/5=1,6=6,7=1,11=9,25=1,30=1,71=1/1,2,3;
 4//1;
 5/5=2,32=2,38=5/2;
 6/7=2,8=2,9=2,10=2,15=8,20=1,28=1,33=2,42=6/1,2;
 7//1,2,3,16;
 1/18=20,19=15/3(2);
 2/9=110/2;
 99//99;
 2/9=110/2;
 3/5=1,6=6,7=1,11=9,25=1,30=1,71=1/1,2,3;
 4/5=5,16=3,69=1/1;
 5/5=2,32=2,38=5/2;
 7//1,2,3,16;
 1/18=20,19=15/3(-5);
 2/9=110/2;
 6/7=2,8=2,9=2,10=2,15=8,19=2,20=1,28=1,33=2,42=6/1,2;
 99/9=1/99;
 -------------
 mobley_129464
 -------------
 Symbolic Z-matrix:
 Charge =  0 Multiplicity = 1
 C                     0.703    -2.233    -0.771 
 C                    -0.419    -2.645     0.168 
 C                    -1.778    -2.583    -0.523 
 C                    -2.905    -2.995     0.414 
 O                    -4.138    -2.916    -0.288 
 C                    -5.233    -3.29      0.537 
 C                    -6.517    -3.183    -0.273 
 C                    -7.739    -3.572     0.555 
 C                    -9.019    -3.464    -0.257 
 H                     1.674    -2.28     -0.267 
 H                     0.739    -2.886    -1.649 
 H                     0.55     -1.206    -1.117 
 H                    -0.231    -3.663     0.528 
 H                    -0.416    -1.985     1.044 
 H                    -1.969    -1.569    -0.896 
 H                    -1.785    -3.233    -1.407 
 H                    -2.767    -4.024     0.761 
 H                    -2.955    -2.329     1.282 
 H                    -5.26     -2.621     1.403 
 H                    -5.073    -4.316     0.883 
 H                    -6.441    -3.823    -1.161 
 H                    -6.625    -2.159    -0.65 
 H                    -7.815    -2.922     1.434 
 H                    -7.63     -4.6       0.92 
 H                    -9.89     -3.745     0.344 
 H                    -9.168    -2.443    -0.622 
 H                    -8.976    -4.131    -1.124 
 

 GradGradGradGradGradGradGradGradGradGradGradGradGradGradGradGradGradGrad
 Berny optimization.
 Initialization pass.
                           ----------------------------
                           !    Initial Parameters    !
                           ! (Angstroms and Degrees)  !
 --------------------------                            --------------------------
 ! Name  Definition              Value          Derivative Info.                !
 --------------------------------------------------------------------------------
 ! R1    R(1,2)                  1.52           estimate D2E/DX2                !
 ! R2    R(1,10)                 1.095          estimate D2E/DX2                !
 ! R3    R(1,11)                 1.0948         estimate D2E/DX2                !
 ! R4    R(1,12)                 1.0945         estimate D2E/DX2                !
 ! R5    R(2,3)                  1.5258         estimate D2E/DX2                !
 ! R6    R(2,13)                 1.096          estimate D2E/DX2                !
 ! R7    R(2,14)                 1.0968         estimate D2E/DX2                !
 ! R8    R(3,4)                  1.5224         estimate D2E/DX2                !
 ! R9    R(3,15)                 1.0972         estimate D2E/DX2                !
 ! R10   R(3,16)                 1.0973         estimate D2E/DX2                !
 ! R11   R(4,5)                  1.421          estimate D2E/DX2                !
 ! R12   R(4,17)                 1.0947         estimate D2E/DX2                !
 ! R13   R(4,18)                 1.0952         estimate D2E/DX2                !
 ! R14   R(5,6)                  1.4211         estimate D2E/DX2                !
 ! R15   R(6,7)                  1.5219         estimate D2E/DX2                !
 ! R16   R(6,19)                 1.0946         estimate D2E/DX2                !
 ! R17   R(6,20)                 1.0945         estimate D2E/DX2                !
 ! R18   R(7,8)                  1.5265         estimate D2E/DX2                !
 ! R19   R(7,21)                 1.0972         estimate D2E/DX2                !
 ! R20   R(7,22)                 1.0965         estimate D2E/DX2                !
 ! R21   R(8,9)                  1.5197         estimate D2E/DX2                !
 ! R22   R(8,23)                 1.0959         estimate D2E/DX2                !
 ! R23   R(8,24)                 1.0963         estimate D2E/DX2                !
 ! R24   R(9,25)                 1.0949         estimate D2E/DX2                !
 ! R25   R(9,26)                 1.0945         estimate D2E/DX2                !
 ! R26   R(9,27)                 1.0947         estimate D2E/DX2                !
 ! A1    A(2,1,10)             111.0137         estimate D2E/DX2                !
 ! A2    A(2,1,11)             110.9795         estimate D2E/DX2                !
 ! A3    A(2,1,12)             110.2707         estimate D2E/DX2                !
 ! A4    A(10,1,11)            108.3223         estimate D2E/DX2                !
 ! A5    A(10,1,12)            108.0438         estimate D2E/DX2                !
 ! A6    A(11,1,12)            108.1046         estimate D2E/DX2                !
 ! A7    A(1,2,3)              111.5104         estimate D2E/DX2                !
 ! A8    A(1,2,13)             109.1508         estimate D2E/DX2                !
 ! A9    A(1,2,14)             109.1642         estimate D2E/DX2                !
 ! A10   A(3,2,13)             109.8319         estimate D2E/DX2                !
 ! A11   A(3,2,14)             109.8573         estimate D2E/DX2                !
 ! A12   A(13,2,14)            107.2238         estimate D2E/DX2                !
 ! A13   A(2,3,4)              111.6908         estimate D2E/DX2                !
 ! A14   A(2,3,15)             110.2768         estimate D2E/DX2                !
 ! A15   A(2,3,16)             110.2706         estimate D2E/DX2                !
 ! A16   A(4,3,15)             109.2971         estimate D2E/DX2                !
 ! A17   A(4,3,16)             109.3175         estimate D2E/DX2                !
 ! A18   A(15,3,16)            105.8114         estimate D2E/DX2                !
 ! A19   A(3,4,5)              108.8578         estimate D2E/DX2                !
 ! A20   A(3,4,17)             110.8644         estimate D2E/DX2                !
 ! A21   A(3,4,18)             110.9166         estimate D2E/DX2                !
 ! A22   A(5,4,17)             108.5565         estimate D2E/DX2                !
 ! A23   A(5,4,18)             108.5482         estimate D2E/DX2                !
 ! A24   A(17,4,18)            109.0353         estimate D2E/DX2                !
 ! A25   A(4,5,6)              111.5401         estimate D2E/DX2                !
 ! A26   A(5,6,7)              108.8202         estimate D2E/DX2                !
 ! A27   A(5,6,19)             108.5082         estimate D2E/DX2                !
 ! A28   A(5,6,20)             108.5166         estimate D2E/DX2                !
 ! A29   A(7,6,19)             110.9332         estimate D2E/DX2                !
 ! A30   A(7,6,20)             110.9456         estimate D2E/DX2                !
 ! A31   A(19,6,20)            109.051          estimate D2E/DX2                !
 ! A32   A(6,7,8)              111.6404         estimate D2E/DX2                !
 ! A33   A(6,7,21)             109.347          estimate D2E/DX2                !
 ! A34   A(6,7,22)             109.3744         estimate D2E/DX2                !
 ! A35   A(8,7,21)             110.2302         estimate D2E/DX2                !
 ! A36   A(8,7,22)             110.2197         estimate D2E/DX2                !
 ! A37   A(21,7,22)            105.8594         estimate D2E/DX2                !
 ! A38   A(7,8,9)              111.4897         estimate D2E/DX2                !
 ! A39   A(7,8,23)             109.8431         estimate D2E/DX2                !
 ! A40   A(7,8,24)             109.874          estimate D2E/DX2                !
 ! A41   A(9,8,23)             109.1486         estimate D2E/DX2                !
 ! A42   A(9,8,24)             109.1644         estimate D2E/DX2                !
 ! A43   A(23,8,24)            107.2192         estimate D2E/DX2                !
 ! A44   A(8,9,25)             111.0087         estimate D2E/DX2                !
 ! A45   A(8,9,26)             111.0486         estimate D2E/DX2                !
 ! A46   A(8,9,27)             110.291          estimate D2E/DX2                !
 ! A47   A(25,9,26)            108.311          estimate D2E/DX2                !
 ! A48   A(25,9,27)            108.0352         estimate D2E/DX2                !
 ! A49   A(26,9,27)            108.0358         estimate D2E/DX2                !
 ! D1    D(10,1,2,3)           179.9758         estimate D2E/DX2                !
 ! D2    D(10,1,2,13)          -58.4979         estimate D2E/DX2                !
 ! D3    D(10,1,2,14)           58.4084         estimate D2E/DX2                !
 ! D4    D(11,1,2,3)           -59.4958         estimate D2E/DX2                !
 ! D5    D(11,1,2,13)           62.0306         estimate D2E/DX2                !
 ! D6    D(11,1,2,14)          178.9369         estimate D2E/DX2                !
 ! D7    D(12,1,2,3)            60.267          estimate D2E/DX2                !
 ! D8    D(12,1,2,13)         -178.2066         estimate D2E/DX2                !
 ! D9    D(12,1,2,14)          -61.3003         estimate D2E/DX2                !
 ! D10   D(1,2,3,4)            179.9976         estimate D2E/DX2                !
 ! D11   D(1,2,3,15)           -58.26           estimate D2E/DX2                !
 ! D12   D(1,2,3,16)            58.2337         estimate D2E/DX2                !
 ! D13   D(13,2,3,4)            58.8673         estimate D2E/DX2                !
 ! D14   D(13,2,3,15)         -179.3904         estimate D2E/DX2                !
 ! D15   D(13,2,3,16)          -62.8966         estimate D2E/DX2                !
 ! D16   D(14,2,3,4)           -58.8379         estimate D2E/DX2                !
 ! D17   D(14,2,3,15)           62.9044         estimate D2E/DX2                !
 ! D18   D(14,2,3,16)          179.3981         estimate D2E/DX2                !
 ! D19   D(2,3,4,5)           -179.9883         estimate D2E/DX2                !
 ! D20   D(2,3,4,17)           -60.6429         estimate D2E/DX2                !
 ! D21   D(2,3,4,18)            60.6448         estimate D2E/DX2                !
 ! D22   D(15,3,4,5)            57.7058         estimate D2E/DX2                !
 ! D23   D(15,3,4,17)          177.0512         estimate D2E/DX2                !
 ! D24   D(15,3,4,18)          -61.6611         estimate D2E/DX2                !
 ! D25   D(16,3,4,5)           -57.6762         estimate D2E/DX2                !
 ! D26   D(16,3,4,17)           61.6691         estimate D2E/DX2                !
 ! D27   D(16,3,4,18)         -177.0431         estimate D2E/DX2                !
 ! D28   D(3,4,5,6)           -179.9955         estimate D2E/DX2                !
 ! D29   D(17,4,5,6)            59.2304         estimate D2E/DX2                !
 ! D30   D(18,4,5,6)           -59.163          estimate D2E/DX2                !
 ! D31   D(4,5,6,7)            179.9804         estimate D2E/DX2                !
 ! D32   D(4,5,6,19)            59.174          estimate D2E/DX2                !
 ! D33   D(4,5,6,20)           -59.1932         estimate D2E/DX2                !
 ! D34   D(5,6,7,8)            179.9973         estimate D2E/DX2                !
 ! D35   D(5,6,7,21)            57.7494         estimate D2E/DX2                !
 ! D36   D(5,6,7,22)           -57.7493         estimate D2E/DX2                !
 ! D37   D(19,6,7,8)           -60.6988         estimate D2E/DX2                !
 ! D38   D(19,6,7,21)          177.0534         estimate D2E/DX2                !
 ! D39   D(19,6,7,22)           61.5547         estimate D2E/DX2                !
 ! D40   D(20,6,7,8)            60.6754         estimate D2E/DX2                !
 ! D41   D(20,6,7,21)          -61.5724         estimate D2E/DX2                !
 ! D42   D(20,6,7,22)         -177.0711         estimate D2E/DX2                !
 ! D43   D(6,7,8,9)           -179.9979         estimate D2E/DX2                !
 ! D44   D(6,7,8,23)            58.8807         estimate D2E/DX2                !
 ! D45   D(6,7,8,24)           -58.8355         estimate D2E/DX2                !
 ! D46   D(21,7,8,9)           -58.2587         estimate D2E/DX2                !
 ! D47   D(21,7,8,23)         -179.3801         estimate D2E/DX2                !
 ! D48   D(21,7,8,24)           62.9037         estimate D2E/DX2                !
 ! D49   D(22,7,8,9)            58.2355         estimate D2E/DX2                !
 ! D50   D(22,7,8,23)          -62.8859         estimate D2E/DX2                !
 ! D51   D(22,7,8,24)          179.3978         estimate D2E/DX2                !
 ! D52   D(7,8,9,25)           179.9782         estimate D2E/DX2                !
 ! D53   D(7,8,9,26)           -59.4645         estimate D2E/DX2                !
 ! D54   D(7,8,9,27)            60.27           estimate D2E/DX2                !
 ! D55   D(23,8,9,25)          -58.4964         estimate D2E/DX2                !
 ! D56   D(23,8,9,26)           62.0609         estimate D2E/DX2                !
 ! D57   D(23,8,9,27)         -178.2045         estimate D2E/DX2                !
 ! D58   D(24,8,9,25)           58.4032         estimate D2E/DX2                !
 ! D59   D(24,8,9,26)          178.9605         estimate D2E/DX2                !
 ! D60   D(24,8,9,27)          -61.3049         estimate D2E/DX2                !
 --------------------------------------------------------------------------------
 Trust Radius=3.00D-01 FncErr=1.00D-07 GrdErr=1.00D-07 EigMax=2.50D+02 EigMin=1.00D-04
 Number of steps in this run=    145 maximum allowed number of steps=    162.
 GradGradGradGradGradGradGradGradGradGradGradGradGradGradGradGradGradGrad

                          Input orientation:                          
 ---------------------------------------------------------------------
 Center     Atomic      Atomic             Coordinates (Angstroms)
 Number     Number       Type             X           Y           Z
 ---------------------------------------------------------------------
      1          6           0        0.703000   -2.233000   -0.771000
      2          6           0       -0.419000   -2.645000    0.168000
      3          6           0       -1.778000   -2.583000   -0.523000
      4          6           0       -2.905000   -2.995000    0.414000
      5          8           0       -4.138000   -2.916000   -0.288000
      6          6           0       -5.233000   -3.290000    0.537000
      7          6           0       -6.517000   -3.183000   -0.273000
      8          6           0       -7.739000   -3.572000    0.555000
      9          6           0       -9.019000   -3.464000   -0.257000
     10          1           0        1.674000   -2.280000   -0.267000
     11          1           0        0.739000   -2.886000   -1.649000
     12          1           0        0.550000   -1.206000   -1.117000
     13          1           0       -0.231000   -3.663000    0.528000
     14          1           0       -0.416000   -1.985000    1.044000
     15          1           0       -1.969000   -1.569000   -0.896000
     16          1           0       -1.785000   -3.233000   -1.407000
     17          1           0       -2.767000   -4.024000    0.761000
     18          1           0       -2.955000   -2.329000    1.282000
     19          1           0       -5.260000   -2.621000    1.403000
     20          1           0       -5.073000   -4.316000    0.883000
     21          1           0       -6.441000   -3.823000   -1.161000
     22          1           0       -6.625000   -2.159000   -0.650000
     23          1           0       -7.815000   -2.922000    1.434000
     24          1           0       -7.630000   -4.600000    0.920000
     25          1           0       -9.890000   -3.745000    0.344000
     26          1           0       -9.168000   -2.443000   -0.622000
     27          1           0       -8.976000   -4.131000   -1.124000
 ---------------------------------------------------------------------
                    Distance matrix (angstroms):
                    1          2          3          4          5
     1  C    0.000000
     2  C    1.519983   0.000000
     3  C    2.517810   1.525846   0.000000
     4  C    3.873310   2.522541   1.522446   0.000000
     5  O    4.912745   3.756639   2.394935   1.421033   0.000000
     6  C    6.169620   4.871014   3.682455   2.349838   1.421100
     7  C    7.299240   6.137551   4.783369   3.681556   2.393983
     8  C    8.649772   7.388606   6.137893   4.870356   3.756087
     9  C    9.813095   8.649358   7.299246   6.168565   4.911764
    10  H    1.095019   2.168663   3.474716   4.684253   5.846733
    11  H    1.094801   2.168071   2.773982   4.188865   5.063433
    12  H    1.094465   2.158913   2.769215   4.181089   5.058526
    13  H    2.145846   1.096024   2.159678   2.758531   4.060605
    14  H    2.146600   1.096807   2.160587   2.759007   4.061314
    15  H    2.756103   2.166188   1.097181   2.150738   2.624621
    16  H    2.755837   2.166178   1.097272   2.151066   2.624740
    17  H    4.194712   2.786825   2.168700   1.094666   2.051269
    18  H    4.195830   2.787857   2.169763   1.095208   2.051575
    19  H    6.358788   4.996107   3.979352   2.581477   2.050705
    20  H    6.358992   4.996317   3.979592   2.581710   2.050723
    21  H    7.329184   6.278408   4.867054   3.958473   2.624612
    22  H    7.329372   6.278515   4.867167   3.958458   2.624740
    23  H    8.825705   7.508682   6.355324   5.015359   4.060252
    24  H    8.826158   7.509065   6.355820   5.015744   4.060688
    25  H   10.758300   9.536289   8.240539   7.025498   5.845697
    26  H    9.874358   8.786917   7.391989   6.372062   5.063219
    27  H    9.869653   8.780644   7.387064   6.364981   5.057802
                    6          7          8          9         10
     6  C    0.000000
     7  C    1.521908   0.000000
     8  C    2.521881   1.526496   0.000000
     9  C    3.872274   2.517781   1.519674   0.000000
    10  H    7.026604   8.240627   9.536746  10.758355   0.000000
    11  H    6.372330   7.391287   8.786620   9.873718   1.775214
    12  H    6.365678   7.386701   8.780721   9.869343   1.771822
    13  H    5.015896   6.354982   7.508600   8.825235   2.484701
    14  H    5.016330   6.355462   7.508929   8.825625   2.484723
    15  H    3.958412   4.865946   6.277763   7.328154   3.764653
    16  H    3.958673   4.866239   6.278095   7.328480   3.764637
    17  H    2.582651   3.979816   4.996751   6.359043   4.880656
    18  H    2.582214   3.979345   4.996022   6.358368   4.881541
    19  H    1.094644   2.169071   2.787283   4.194798   7.140416
    20  H    1.094528   2.169138   2.787234   4.194809   7.140715
    21  H    2.150943   1.097233   2.166209   2.755391   8.308629
    22  H    2.150766   1.096526   2.165546   2.754761   8.308714
    23  H    2.758035   2.160272   1.095864   2.145428   9.661609
    24  H    2.758332   2.160997   1.096307   2.145960   9.662080
    25  H    4.683153   3.474718   2.168237   1.094899  11.672431
    26  H    4.188665   2.774383   2.168412   1.094471  10.849035
    27  H    4.180461   2.769402   2.159095   1.094727  10.843576
                   11         12         13         14         15
    11  H    0.000000
    12  H    1.772328   0.000000
    13  H    2.506782   3.058241   0.000000
    14  H    3.065628   2.491971   1.765266   0.000000
    15  H    3.103991   2.554598   3.071361   2.519616   0.000000
    16  H    2.559209   3.105649   2.518738   3.072306   1.750392
    17  H    4.403996   4.740306   2.572140   3.124870   3.067487
    18  H    4.748331   4.393331   3.125420   2.573228   2.508681
    19  H    6.735943   6.489124   5.209821   4.898746   4.150034
    20  H    6.498867   6.729802   4.898714   5.210291   4.510617
    21  H    7.257308   7.464898   6.437579   6.673896   5.014930
    22  H    7.466929   7.253063   6.673300   6.438291   4.699676
    23  H    9.092695   8.912098   7.673785   7.468284   6.437020
    24  H    8.920634   9.087409   7.468389   7.674334   6.673210
    25  H   10.848298  10.843184   9.661100   9.661484   8.307516
    26  H    9.969936   9.808910   9.092902   8.920921   7.257035
    27  H    9.808510   9.964956   8.911967   9.087307   7.464173
                   16         17         18         19         20
    16  H    0.000000
    17  H    2.508033   0.000000
    18  H    3.068687   1.783202   0.000000
    19  H    4.510684   2.931829   2.326570   0.000000
    20  H    4.150655   2.327613   2.931432   1.782805   0.000000
    21  H    4.699676   4.151236   4.511372   3.068169   2.508467
    22  H    5.015189   4.511464   4.150955   2.508282   3.067807
    23  H    6.672998   5.210531   4.898403   2.572856   3.124964
    24  H    6.437984   4.899574   5.210001   3.125161   2.572989
    25  H    8.307778   7.140648   7.139967   4.880754   4.880579
    26  H    7.466526   6.736843   6.499198   4.405085   4.747860
    27  H    7.252377   6.489711   6.729672   4.740726   4.392685
                   21         22         23         24         25
    21  H    0.000000
    22  H    1.750392   0.000000
    23  H    3.071433   2.518199   0.000000
    24  H    2.519526   3.071385   1.764683   0.000000
    25  H    3.763869   3.763463   2.484161   2.484029   0.000000
    26  H    3.103458   2.558962   2.507426   3.065266   1.774724
    27  H    2.553910   3.104941   3.058262   2.491910   1.771840
                   26         27
    26  H    0.000000
    27  H    1.771500   0.000000
 Stoichiometry    C8H18O
 Framework group  C1[X(C8H18O)]
 Deg. of freedom    75
 Full point group                 C1      NOp   1
 Largest Abelian subgroup         C1      NOp   1
 Largest concise Abelian subgroup C1      NOp   1
                         Standard orientation:                         
 ---------------------------------------------------------------------
 Center     Atomic      Atomic             Coordinates (Angstroms)
 Number     Number       Type             X           Y           Z
 ---------------------------------------------------------------------
      1          6           0        4.906776   -0.488793    0.000574
      2          6           0        3.694339    0.427912    0.000487
      3          6           0        2.391913   -0.367005    0.000213
      4          6           0        1.174628    0.547358    0.000183
      5          8           0       -0.000259   -0.252001    0.000199
      6          6           0       -1.175210    0.547384    0.000069
      7          6           0       -2.391456   -0.367466   -0.000399
      8          6           0       -3.694266    0.428067   -0.000493
      9          6           0       -4.906319   -0.488631   -0.000908
     10          1           0        5.836477    0.089759    0.000339
     11          1           0        4.906371   -1.139178    0.881248
     12          1           0        4.902275   -1.123552   -0.891006
     13          1           0        3.733913    1.076515    0.883106
     14          1           0        3.734365    1.077772   -0.882160
     15          1           0        2.349546   -1.027149   -0.875127
     16          1           0        2.349599   -1.027685    0.875265
     17          1           0        1.163965    1.182344    0.891796
     18          1           0        1.163319    1.183299   -0.891406
     19          1           0       -1.163252    1.182551   -0.891371
     20          1           0       -1.163648    1.182465    0.891434
     21          1           0       -2.350076   -1.027632    0.875037
     22          1           0       -2.350130   -1.027096   -0.875355
     23          1           0       -3.733919    1.076804   -0.882811
     24          1           0       -3.734476    1.077457    0.881871
     25          1           0       -5.835954    0.089800   -0.000583
     26          1           0       -4.906617   -1.139491   -0.880821
     27          1           0       -4.902123   -1.123938    0.890604
 ---------------------------------------------------------------------
 Rotational constants (GHZ):           9.3738967           0.3777436           0.3698045
 Standard basis: 6-31G(d) (6D, 7F)
 There are   171 symmetry adapted cartesian basis functions of A   symmetry.
 There are   171 symmetry adapted basis functions of A   symmetry.
   171 basis functions,   324 primitive gaussians,   171 cartesian basis functions
    37 alpha electrons       37 beta electrons
       nuclear repulsion energy       454.5530179639 Hartrees.
 NAtoms=   27 NActive=   27 NUniq=   27 SFac= 1.00D+00 NAtFMM=   60 NAOKFM=F Big=F
 Integral buffers will be    131072 words long.
 Raffenetti 1 integral format.
 Two-electron integral symmetry is turned on.
 One-electron integrals computed using PRISM.
 NBasis=   171 RedAO= T EigKep=  3.19D-03  NBF=   171
 NBsUse=   171 1.00D-06 EigRej= -1.00D+00 NBFU=   171
 ExpMin= 1.61D-01 ExpMax= 5.48D+03 ExpMxC= 8.25D+02 IAcc=3 IRadAn=         5 AccDes= 0.00D+00
 Harris functional with IExCor=  205 and IRadAn=       5 diagonalized for initial guess.
 HarFok:  IExCor=  205 AccDes= 0.00D+00 IRadAn=         5 IDoV= 1 UseB2=F ITyADJ=14
 ICtDFT=  3500011 ScaDFX=  1.000000  1.000000  1.000000  1.000000
 FoFCou: FMM=F IPFlag=           0 FMFlag=      100000 FMFlg1=           0
         NFxFlg=           0 DoJE=T BraDBF=F KetDBF=T FulRan=T
         wScrn=  0.000000 ICntrl=       500 IOpCl=  0 I1Cent=   200000004 NGrid=           0
         NMat0=    1 NMatS0=      1 NMatT0=    0 NMatD0=    1 NMtDS0=    0 NMtDT0=    0
 Petite list used in FoFCou.
 Keep R1 ints in memory in canonical form, NReq=110686799.
 Requested convergence on RMS density matrix=1.00D-08 within 128 cycles.
 Requested convergence on MAX density matrix=1.00D-06.
 Requested convergence on             energy=1.00D-06.
 No special actions if energy rises.
 SCF Done:  E(RHF) =  -388.280462710     A.U. after   11 cycles
            NFock= 11  Conv=0.59D-08     -V/T= 2.0013
 SCF density gives NOpUse=  1 NOpAll=  1.

 **********************************************************************

            Population analysis using the SCF Density.

 **********************************************************************

 Orbital symmetries:
 BldTbl:  Degeneracy threshold= 1.00D-02
       Occupied  (A) (A) (A) (A) (A) (A) (A) (A) (A) (A) (A) (A)
                 (A) (A) (A) (A) (A) (A) (A) (A) (A) (A) (A) (A)
                 (A) (A) (A) (A) (A) (A) (A) (A) (A) (A) (A) (A)
                 (A)
       Virtual   (A) (A) (A) (A) (A) (A) (A) (A) (A) (A) (A) (A)
                 (A) (A) (A) (A) (A) (A) (A) (A) (A) (A) (A) (A)
                 (A) (A) (A) (A) (A) (A) (A) (A) (A) (A) (A) (A)
                 (A) (A) (A) (A) (A) (A) (A) (A) (A) (A) (A) (A)
                 (A) (A) (A) (A) (A) (A) (A) (A) (A) (A) (A) (A)
                 (A) (A) (A) (A) (A) (A) (A) (A) (A) (A) (A) (A)
                 (A) (A) (A) (A) (A) (A) (A) (A) (A) (A) (A) (A)
                 (A) (A) (A) (A) (A) (A) (A) (A) (A) (A) (A) (A)
                 (A) (A) (A) (A) (A) (A) (A) (A) (A) (A) (A) (A)
                 (A) (A) (A) (A) (A) (A) (A) (A) (A) (A) (A) (A)
                 (A) (A) (A) (A) (A) (A) (A) (A) (A) (A) (A) (A)
                 (A) (A)
 The electronic state is 1-A.
 Alpha  occ. eigenvalues --  -20.54796 -11.26662 -11.26653 -11.21981 -11.21973
 Alpha  occ. eigenvalues --  -11.21445 -11.21440 -11.21212 -11.21205  -1.36036
 Alpha  occ. eigenvalues --   -1.08043  -1.06537  -0.99230  -0.95033  -0.86063
 Alpha  occ. eigenvalues --   -0.83324  -0.79976  -0.78618  -0.67974  -0.64305
 Alpha  occ. eigenvalues --   -0.63983  -0.61550  -0.61424  -0.57447  -0.57179
 Alpha  occ. eigenvalues --   -0.55929  -0.53088  -0.52109  -0.50261  -0.49523
 Alpha  occ. eigenvalues --   -0.47817  -0.47502  -0.46834  -0.46314  -0.45826
 Alpha  occ. eigenvalues --   -0.44744  -0.41182
 Alpha virt. eigenvalues --    0.22708   0.23464   0.24542   0.27069   0.27893
 Alpha virt. eigenvalues --    0.28253   0.29170   0.29452   0.29595   0.32973
 Alpha virt. eigenvalues --    0.33128   0.33165   0.34201   0.34352   0.35639
 Alpha virt. eigenvalues --    0.35897   0.36654   0.36714   0.37834   0.38473
 Alpha virt. eigenvalues --    0.41314   0.43518   0.43778   0.46102   0.48033
 Alpha virt. eigenvalues --    0.52571   0.68583   0.72750   0.73982   0.75227
 Alpha virt. eigenvalues --    0.75625   0.75666   0.77265   0.77544   0.78673
 Alpha virt. eigenvalues --    0.80693   0.83792   0.86839   0.89126   0.92726
 Alpha virt. eigenvalues --    0.92824   0.96116   0.96143   0.98493   0.99052
 Alpha virt. eigenvalues --    1.04688   1.05956   1.06331   1.10458   1.11753
 Alpha virt. eigenvalues --    1.12678   1.13279   1.14364   1.15420   1.17144
 Alpha virt. eigenvalues --    1.18223   1.18865   1.19284   1.19306   1.20924
 Alpha virt. eigenvalues --    1.21156   1.21268   1.21555   1.22465   1.22649
 Alpha virt. eigenvalues --    1.25428   1.26380   1.26425   1.35733   1.39399
 Alpha virt. eigenvalues --    1.43908   1.48984   1.54237   1.61734   1.64890
 Alpha virt. eigenvalues --    1.67434   1.69010   1.70947   1.72106   1.74065
 Alpha virt. eigenvalues --    1.80555   1.81577   1.82517   1.96134   2.03093
 Alpha virt. eigenvalues --    2.06281   2.06733   2.07450   2.19778   2.21395
 Alpha virt. eigenvalues --    2.23383   2.23446   2.24519   2.26825   2.27643
 Alpha virt. eigenvalues --    2.28201   2.34035   2.34263   2.35480   2.35673
 Alpha virt. eigenvalues --    2.40980   2.46319   2.46598   2.49626   2.52090
 Alpha virt. eigenvalues --    2.57188   2.57789   2.60428   2.64948   2.65371
 Alpha virt. eigenvalues --    2.67899   2.72879   2.73675   2.76055   2.79411
 Alpha virt. eigenvalues --    2.86341   2.90381   2.90889   2.93918   2.98623
 Alpha virt. eigenvalues --    3.03309   3.10243   3.12827   3.29012   3.43277
 Alpha virt. eigenvalues --    4.47863   4.58193   4.58797   4.69732   4.70364
 Alpha virt. eigenvalues --    4.79591   4.82276   4.94600   4.99231
          Condensed to atoms (all electrons):
               1          2          3          4          5          6
     1  C    5.096278   0.340013  -0.058308   0.004225  -0.000036   0.000002
     2  C    0.340013   5.092563   0.331285  -0.053692   0.002229  -0.000135
     3  C   -0.058308   0.331285   5.092495   0.376018  -0.045614   0.005055
     4  C    0.004225  -0.053692   0.376018   4.774945   0.206832  -0.048222
     5  O   -0.000036   0.002229  -0.045614   0.206832   8.488035   0.206690
     6  C    0.000002  -0.000135   0.005055  -0.048222   0.206690   4.774796
     7  C   -0.000000   0.000001  -0.000127   0.005062  -0.045718   0.376039
     8  C    0.000000  -0.000000   0.000001  -0.000136   0.002239  -0.053779
     9  C   -0.000000   0.000000  -0.000000   0.000002  -0.000036   0.004229
    10  H    0.394626  -0.037785   0.004574  -0.000091   0.000000  -0.000000
    11  H    0.392567  -0.039287  -0.003837  -0.000071  -0.000001  -0.000000
    12  H    0.392601  -0.040308  -0.003952  -0.000075  -0.000001  -0.000000
    13  H   -0.040525   0.398528  -0.042033  -0.003429  -0.000023  -0.000004
    14  H   -0.040293   0.398653  -0.041955  -0.003405  -0.000023  -0.000004
    15  H   -0.003222  -0.037886   0.394482  -0.037230   0.001966  -0.000162
    16  H   -0.003226  -0.037853   0.394529  -0.037169   0.001960  -0.000161
    17  H   -0.000112  -0.000347  -0.041596   0.393990  -0.042082  -0.006590
    18  H   -0.000112  -0.000342  -0.041494   0.393970  -0.042101  -0.006595
    19  H   -0.000000   0.000010  -0.000097  -0.006596  -0.042139   0.394086
    20  H   -0.000000   0.000010  -0.000098  -0.006577  -0.042126   0.394062
    21  H   -0.000000   0.000000  -0.000000  -0.000161   0.001951  -0.037170
    22  H   -0.000000   0.000000  -0.000000  -0.000161   0.001953  -0.037113
    23  H   -0.000000  -0.000000   0.000000  -0.000004  -0.000023  -0.003422
    24  H   -0.000000  -0.000000   0.000000  -0.000004  -0.000023  -0.003400
    25  H    0.000000  -0.000000   0.000000  -0.000000   0.000000  -0.000091
    26  H   -0.000000  -0.000000  -0.000000   0.000000  -0.000001  -0.000071
    27  H   -0.000000  -0.000000  -0.000000  -0.000000  -0.000001  -0.000074
               7          8          9         10         11         12
     1  C   -0.000000   0.000000  -0.000000   0.394626   0.392567   0.392601
     2  C    0.000001  -0.000000   0.000000  -0.037785  -0.039287  -0.040308
     3  C   -0.000127   0.000001  -0.000000   0.004574  -0.003837  -0.003952
     4  C    0.005062  -0.000136   0.000002  -0.000091  -0.000071  -0.000075
     5  O   -0.045718   0.002239  -0.000036   0.000000  -0.000001  -0.000001
     6  C    0.376039  -0.053779   0.004229  -0.000000  -0.000000  -0.000000
     7  C    5.092134   0.331462  -0.058338   0.000000  -0.000000  -0.000000
     8  C    0.331462   5.092603   0.339988  -0.000000  -0.000000  -0.000000
     9  C   -0.058338   0.339988   5.096381   0.000000  -0.000000  -0.000000
    10  H    0.000000  -0.000000   0.000000   0.538243  -0.026866  -0.027224
    11  H   -0.000000  -0.000000  -0.000000  -0.026866   0.543984  -0.028541
    12  H   -0.000000  -0.000000  -0.000000  -0.027224  -0.028541   0.546041
    13  H    0.000000  -0.000000  -0.000000  -0.002742  -0.002954   0.004410
    14  H    0.000000  -0.000000  -0.000000  -0.002653   0.004299  -0.003122
    15  H   -0.000000   0.000000  -0.000000  -0.000048   0.000166   0.002545
    16  H   -0.000000   0.000000  -0.000000  -0.000048   0.002497   0.000163
    17  H   -0.000097   0.000010  -0.000000   0.000003   0.000016  -0.000003
    18  H   -0.000096   0.000010  -0.000000   0.000003  -0.000003   0.000017
    19  H   -0.041489  -0.000359  -0.000112   0.000000  -0.000000   0.000000
    20  H   -0.041479  -0.000357  -0.000112   0.000000   0.000000  -0.000000
    21  H    0.394527  -0.037914  -0.003216   0.000000  -0.000000   0.000000
    22  H    0.394582  -0.037879  -0.003219   0.000000   0.000000  -0.000000
    23  H   -0.041963   0.398526  -0.040544  -0.000000   0.000000  -0.000000
    24  H   -0.041886   0.398687  -0.040297  -0.000000  -0.000000   0.000000
    25  H    0.004578  -0.037823   0.394643  -0.000000   0.000000   0.000000
    26  H   -0.003839  -0.039205   0.392610   0.000000  -0.000000   0.000000
    27  H   -0.003961  -0.040294   0.392610   0.000000   0.000000  -0.000000
              13         14         15         16         17         18
     1  C   -0.040525  -0.040293  -0.003222  -0.003226  -0.000112  -0.000112
     2  C    0.398528   0.398653  -0.037886  -0.037853  -0.000347  -0.000342
     3  C   -0.042033  -0.041955   0.394482   0.394529  -0.041596  -0.041494
     4  C   -0.003429  -0.003405  -0.037230  -0.037169   0.393990   0.393970
     5  O   -0.000023  -0.000023   0.001966   0.001960  -0.042082  -0.042101
     6  C   -0.000004  -0.000004  -0.000162  -0.000161  -0.006590  -0.006595
     7  C    0.000000   0.000000  -0.000000  -0.000000  -0.000097  -0.000096
     8  C   -0.000000  -0.000000   0.000000   0.000000   0.000010   0.000010
     9  C   -0.000000  -0.000000  -0.000000  -0.000000  -0.000000  -0.000000
    10  H   -0.002742  -0.002653  -0.000048  -0.000048   0.000003   0.000003
    11  H   -0.002954   0.004299   0.000166   0.002497   0.000016  -0.000003
    12  H    0.004410  -0.003122   0.002545   0.000163  -0.000003   0.000017
    13  H    0.561849  -0.031353   0.004220  -0.002765   0.002247   0.000145
    14  H   -0.031353   0.561574  -0.002765   0.004209   0.000145   0.002239
    15  H    0.004220  -0.002765   0.540127  -0.030670   0.004607  -0.004500
    16  H   -0.002765   0.004209  -0.030670   0.539993  -0.004506   0.004594
    17  H    0.002247   0.000145   0.004607  -0.004506   0.597852  -0.046975
    18  H    0.000145   0.002239  -0.004500   0.004594  -0.046975   0.597935
    19  H    0.000000  -0.000002  -0.000018   0.000019  -0.001421   0.008282
    20  H   -0.000002   0.000000   0.000019  -0.000018   0.008270  -0.001423
    21  H   -0.000000  -0.000000  -0.000000   0.000002  -0.000018   0.000019
    22  H   -0.000000  -0.000000   0.000002  -0.000000   0.000019  -0.000018
    23  H   -0.000000   0.000000  -0.000000  -0.000000   0.000000  -0.000002
    24  H    0.000000  -0.000000  -0.000000  -0.000000  -0.000002   0.000000
    25  H   -0.000000  -0.000000   0.000000   0.000000   0.000000   0.000000
    26  H    0.000000  -0.000000  -0.000000   0.000000  -0.000000   0.000000
    27  H   -0.000000   0.000000   0.000000  -0.000000   0.000000  -0.000000
              19         20         21         22         23         24
     1  C   -0.000000  -0.000000  -0.000000  -0.000000  -0.000000  -0.000000
     2  C    0.000010   0.000010   0.000000   0.000000  -0.000000  -0.000000
     3  C   -0.000097  -0.000098  -0.000000  -0.000000   0.000000   0.000000
     4  C   -0.006596  -0.006577  -0.000161  -0.000161  -0.000004  -0.000004
     5  O   -0.042139  -0.042126   0.001951   0.001953  -0.000023  -0.000023
     6  C    0.394086   0.394062  -0.037170  -0.037113  -0.003422  -0.003400
     7  C   -0.041489  -0.041479   0.394527   0.394582  -0.041963  -0.041886
     8  C   -0.000359  -0.000357  -0.037914  -0.037879   0.398526   0.398687
     9  C   -0.000112  -0.000112  -0.003216  -0.003219  -0.040544  -0.040297
    10  H    0.000000   0.000000   0.000000   0.000000  -0.000000  -0.000000
    11  H   -0.000000   0.000000  -0.000000   0.000000   0.000000  -0.000000
    12  H    0.000000  -0.000000   0.000000  -0.000000  -0.000000   0.000000
    13  H    0.000000  -0.000002  -0.000000  -0.000000  -0.000000   0.000000
    14  H   -0.000002   0.000000  -0.000000  -0.000000   0.000000  -0.000000
    15  H   -0.000018   0.000019  -0.000000   0.000002  -0.000000  -0.000000
    16  H    0.000019  -0.000018   0.000002  -0.000000  -0.000000  -0.000000
    17  H   -0.001421   0.008270  -0.000018   0.000019   0.000000  -0.000002
    18  H    0.008282  -0.001423   0.000019  -0.000018  -0.000002   0.000000
    19  H    0.597627  -0.046958   0.004595  -0.004498   0.002235   0.000146
    20  H   -0.046958   0.597611  -0.004494   0.004593   0.000147   0.002232
    21  H    0.004595  -0.004494   0.539973  -0.030615   0.004215  -0.002758
    22  H   -0.004498   0.004593  -0.030615   0.539631  -0.002759   0.004208
    23  H    0.002235   0.000147   0.004215  -0.002759   0.561816  -0.031387
    24  H    0.000146   0.002232  -0.002758   0.004208  -0.031387   0.561387
    25  H    0.000003   0.000003  -0.000049  -0.000048  -0.002746  -0.002658
    26  H    0.000016  -0.000003   0.000166   0.002492  -0.002954   0.004298
    27  H   -0.000003   0.000017   0.002545   0.000163   0.004412  -0.003132
              25         26         27
     1  C    0.000000  -0.000000  -0.000000
     2  C   -0.000000  -0.000000  -0.000000
     3  C    0.000000  -0.000000  -0.000000
     4  C   -0.000000   0.000000  -0.000000
     5  O    0.000000  -0.000001  -0.000001
     6  C   -0.000091  -0.000071  -0.000074
     7  C    0.004578  -0.003839  -0.003961
     8  C   -0.037823  -0.039205  -0.040294
     9  C    0.394643   0.392610   0.392610
    10  H   -0.000000   0.000000   0.000000
    11  H    0.000000  -0.000000   0.000000
    12  H    0.000000   0.000000  -0.000000
    13  H   -0.000000   0.000000  -0.000000
    14  H   -0.000000  -0.000000   0.000000
    15  H    0.000000  -0.000000   0.000000
    16  H    0.000000   0.000000  -0.000000
    17  H    0.000000  -0.000000   0.000000
    18  H    0.000000   0.000000  -0.000000
    19  H    0.000003   0.000016  -0.000003
    20  H    0.000003  -0.000003   0.000017
    21  H   -0.000049   0.000166   0.002545
    22  H   -0.000048   0.002492   0.000163
    23  H   -0.002746  -0.002954   0.004412
    24  H   -0.002658   0.004298  -0.003132
    25  H    0.538288  -0.026884  -0.027213
    26  H   -0.026884   0.543917  -0.028644
    27  H   -0.027213  -0.028644   0.546255
 Mulliken charges:
               1
     1  C   -0.474477
     2  C   -0.315658
     3  C   -0.319327
     4  C    0.041981
     5  O   -0.653909
     6  C    0.042035
     7  C   -0.319391
     8  C   -0.315781
     9  C   -0.474591
    10  H    0.160010
    11  H    0.158031
    12  H    0.157449
    13  H    0.154429
    14  H    0.154457
    15  H    0.168368
    16  H    0.168452
    17  H    0.136590
    18  H    0.136450
    19  H    0.136672
    20  H    0.136684
    21  H    0.168402
    22  H    0.168667
    23  H    0.154453
    24  H    0.154589
    25  H    0.159997
    26  H    0.158101
    27  H    0.157319
 Sum of Mulliken charges =  -0.00000
 Mulliken charges with hydrogens summed into heavy atoms:
               1
     1  C    0.001012
     2  C   -0.006772
     3  C    0.017493
     4  C    0.315021
     5  O   -0.653909
     6  C    0.315391
     7  C    0.017677
     8  C   -0.006740
     9  C    0.000826
 DipInt: DoE/N= T F RetVal/Mat= T F Init=T NMatP=  1 IDeriv=0 Min/MaxMlt=  0  4
 Entering OneElI...
 OneElI was handed   134139994 working-precision words.
 Multipole integrals L=0 to 4 MinM= 0 MaxM= 0.
 Requested accuracy = 0.1000D-12
 PrtBox:  NBox=     1 Levels=  1 BoxLen=   35.86 SMaxX=       22.06
          Shift=           11.028355            2.153326            1.684514
 Box      1 Number                   0 centers from      1 to     72:
 ShPair: Thresh= 1.00D-13 NBox=     1 BxSize= 3.59D+01 RnKept= 2.05D+01
         NSMCal=                 2628 NSMKep=                2191
 PrmmSu-InSpLW:  IPartL=    0 NPrtUS=    1 NPrtUL=    1 DoSpLW=F IThBeg=    0 IThEnd=    0 NThAct=    1.
 PrSmSu:  IncTry=   512 NBBP=           2191 NTPThr=   100 NPartT=    1 Incr=          21 LDynOK=F GPUOK=F.
 PrsmSu:  NPrtUS=   1 ThrOK=F IAlg=2 LenDen=           0 ISkipM=0 DoSpLW=F IThBeg=    0 IThEnd=    0.
 Prism:   IPart=     0 DynPar=F LinDyn=F Incr=          21.
 PRISM was handed   133964626 working-precision words and  2191 shell-pairs
 IPart=  0 NShTot=        2191 NBatch=          39 AvBLen=        56.2
 PrsmSu-ThDecC:  IPartSL=    0    0 NPrtUSL=    1    1 IThBeg=    0 IThEnd=    0 CPU=   -1 GPU=   -1 NThAct=    1.
 PrSmSu:  NxtVal=             22.
 Electronic moments (au):
        -74.00000000         -0.00048334          0.51275000         -0.00011465
      -2848.33775141       -153.73472529        -88.69766623          0.00098022
          0.00395527          0.00126754         -1.84223698        -16.88796347
         -0.00400459          0.03131900        991.68874820          0.39718143
         -0.07863811         -3.63438583          0.00510992          0.16087661
    -204002.19326965       -905.43924098       -429.06910238          1.90394271
          2.62662337         -0.14193536          0.10896673          2.34888619
          0.02162374      -6121.26147994      -3592.37860719       -326.13886424
         -0.15787909         -1.99568784         -0.02798675
 Electronic spatial extent (au):  <R**2>=           3090.7701
 DipInt: DoE/N= F T RetVal/Mat= T F Init=T NMatP=  1 IDeriv=0 Min/MaxMlt=  0  4
 Nuclear    moments (au):
         74.00000000          0.00000000          0.00000000          0.00000000
       2805.01336083        108.49474808         44.62985827          0.00000000
         -0.00000000         -0.00000000          1.84981427         15.31210587
          0.00480697         -0.06485247       -986.54075328         -0.41603790
          0.07541585          2.80207743         -0.00583255         -0.34436031
     193162.18908228        339.73812252        124.51487140         -1.73516113
         -1.33710090          0.17553669         -0.09633140         -2.55424090
         -0.00349667       4240.98960834       1787.54859374        195.29461131
          0.23903479          2.58872937          0.01670800
 Total      moments (au):
          0.00000000         -0.00048334          0.51275000         -0.00011465
        -43.32439058        -45.23997721        -44.06780796          0.00098022
          0.00395527          0.00126754          0.00757729         -1.57585760
          0.00080238         -0.03353348          5.14799492         -0.01885648
         -0.00322226         -0.83230840         -0.00072263         -0.18348370
     -10840.00418737       -565.70111846       -304.55423098          0.16878157
          1.28952248          0.03360134          0.01263533         -0.20535470
          0.01812707      -1880.27187161      -1804.83001345       -130.84425294
          0.08115570          0.59304152         -0.01127875
 Traceless Quadrup. (au):
          0.88633467         -1.02925196          0.14291729          0.00098022
          0.00395527          0.00126754
 Charge=              0.0000 electrons
 Dipole moment (field-independent basis, Debye):
    X=             -0.0012    Y=              1.3033    Z=             -0.0003  Tot=              1.3033
 Quadrupole moment (field-independent basis, Debye-Ang):
   XX=            -58.2728   YY=            -60.8493   ZZ=            -59.2727
   XY=              0.0013   XZ=              0.0053   YZ=              0.0017
 Traceless Quadrupole moment (field-independent basis, Debye-Ang):
   XX=              1.1922   YY=             -1.3844   ZZ=              0.1922
   XY=              0.0013   XZ=              0.0053   YZ=              0.0017
 Octapole moment (field-independent basis, Debye-Ang**2):
  XXX=              0.0054  YYY=             -1.1216  ZZZ=              0.0006  XYY=             -0.0239
  XXY=              3.6641  XXZ=             -0.0134  XZZ=             -0.0023  YZZ=             -0.5924
  YYZ=             -0.0005  XYZ=             -0.1306
 Hexadecapole moment (field-independent basis, Debye-Ang**3):
 XXXX=          -4082.8654 YYYY=           -213.0702 ZZZZ=           -114.7097 XXXY=              0.0636
 XXXZ=              0.4857 YYYX=              0.0127 YYYZ=              0.0048 ZZZX=             -0.0773
 ZZZY=              0.0068 XXYY=           -708.2005 XXZZ=           -679.7855 YYZZ=            -49.2822
 XXYZ=              0.0306 YYXZ=              0.2234 ZZXY=             -0.0042
 N-N= 4.545530179639D+02 E-N=-1.814938460562D+03  KE= 3.877758462111D+02
 Entering OneElI...
 OneElI was handed   134153827 working-precision words.
 Calculate electrostatic properties
    NBasis =   171  MinDer = 0  MaxDer = 0
    NGrid  =    27  NMatD  =   1
 Requested accuracy = 0.1000D-12
 PrtBox:  NBox=     1 Levels=  1 BoxLen=   29.89 SMaxX=       22.06
          Shift=           11.028355            2.153326            1.684514
 Box      1 Number                   0 centers from      1 to     72:
 ShPair: Thresh= 1.00D-13 NBox=     1 BxSize= 2.99D+01 RnKept= 1.85D+01
         NSMCal=                 2628 NSMKep=                1939
 PrmmSu-InSpLW:  IPartL=    0 NPrtUS=    1 NPrtUL=    1 DoSpLW=F IThBeg=    0 IThEnd=    0 NThAct=    1.
 PrSmSu:  IncTry=   512 NBBP=          52353 NTPThr=   100 NPartT=    1 Incr=         512 LDynOK=F GPUOK=F.
 PrsmSu:  NPrtUS=   1 ThrOK=F IAlg=2 LenDen=           0 ISkipM=0 DoSpLW=F IThBeg=    0 IThEnd=    0.
 Prism:   IPart=     0 DynPar=F LinDyn=F Incr=         512.
 PRISM was handed   133995473 working-precision words and  1939 shell-pairs
 IPart=  0 NShTot=       52353 NBatch=        1939 AvBLen=        27.0
 PrsmSu-ThDecC:  IPartSL=    0    0 NPrtUSL=    1    1 IThBeg=    0 IThEnd=    0 CPU=   -1 GPU=   -1 NThAct=    1.
 PrSmSu:  NxtVal=            513.
 --------------------------------------------------------
       Center         ----      EFG at Nuclei      ----
                      3XX-RR        3YY-RR        3ZZ-RR
 --------------------------------------------------------
     1   Atom       -0.001764     -0.006429      0.008192
     2   Atom       -0.003715     -0.008607      0.012322
     3   Atom       -0.002643     -0.025020      0.027664
     4   Atom       -0.164079     -0.005508      0.169586
     5   Atom       -1.844789     -0.102553      1.947342
     6   Atom       -0.164575     -0.005382      0.169957
     7   Atom       -0.002947     -0.025015      0.027962
     8   Atom       -0.004020     -0.008616      0.012636
     9   Atom       -0.001559     -0.006466      0.008025
    10   Atom       -0.174963      0.022121      0.152843
    11   Atom        0.146475     -0.006697     -0.139778
    12   Atom        0.146821      0.000253     -0.147074
    13   Atom        0.141437     -0.005066     -0.136371
    14   Atom        0.140706     -0.005317     -0.135389
    15   Atom        0.141417     -0.008051     -0.133366
    16   Atom        0.141341     -0.008263     -0.133077
    17   Atom        0.134514      0.002851     -0.137364
    18   Atom        0.134053      0.002587     -0.136640
    19   Atom        0.134514      0.002759     -0.137274
    20   Atom        0.134613      0.002778     -0.137391
    21   Atom        0.141407     -0.008065     -0.133343
    22   Atom        0.141990     -0.008052     -0.133938
    23   Atom        0.141579     -0.005172     -0.136407
    24   Atom        0.141119     -0.005240     -0.135879
    25   Atom       -0.175122      0.022156      0.152966
    26   Atom        0.146759     -0.006970     -0.139789
    27   Atom        0.146605      0.000117     -0.146721
 --------------------------------------------------------
                        XY            XZ            YZ
 --------------------------------------------------------
     1   Atom        0.009561     -0.000006      0.000359
     2   Atom        0.000797     -0.000193      0.000707
     3   Atom        0.012796      0.000017      0.000051
     4   Atom       -0.248516      0.000003      0.000372
     5   Atom       -0.000435     -0.000063      0.000171
     6   Atom        0.249025     -0.000064      0.000095
     7   Atom       -0.012301     -0.000006      0.000428
     8   Atom       -0.000584     -0.000221     -0.000505
     9   Atom       -0.009398     -0.000015     -0.000017
    10   Atom       -0.198861     -0.000109      0.000039
    11   Atom        0.002807      0.002135      0.214521
    12   Atom        0.002133     -0.003235     -0.212527
    13   Atom       -0.008314     -0.012032     -0.211572
    14   Atom       -0.008411      0.012244      0.210670
    15   Atom       -0.007039     -0.012454     -0.209606
    16   Atom       -0.007029      0.012447      0.209560
    17   Atom       -0.002552      0.003624     -0.209007
    18   Atom       -0.002438     -0.003768      0.208460
    19   Atom        0.002302      0.003944      0.209059
    20   Atom        0.002400     -0.003817     -0.209199
    21   Atom        0.006820     -0.012196      0.209539
    22   Atom        0.006856      0.012261     -0.210376
    23   Atom        0.008321     -0.012048      0.211796
    24   Atom        0.008458      0.012331     -0.211238
    25   Atom        0.198977     -0.000076     -0.000069
    26   Atom       -0.002946      0.001954     -0.215019
    27   Atom       -0.002205     -0.003150      0.212264
 --------------------------------------------------------


 ---------------------------------------------------------------------------------
              Nuclear Quadrupole Coupling Constant in Principal Axis System
 ---------------------------------------------------------------------------------

       Atom             a.u.   MegaHertz   Gauss  10(-4) cm-1        Axes


 ---------------------------------------------------------------------------------

 No NMR shielding tensors so no spin-rotation constants.
 Leave Link  601 at Thu Nov  2 13:05:43 2023, MaxMem=   134217728 cpu:               0.2 elap:               0.2
 FitSet:  NAtFit=    27 NAtPot=    27 NAtFrz=     0 MDM=    31 TotChg=   0.00000
 Merz-Kollman atomic radii used.
 Atom Element Radius
    1     6    1.50
    2     6    1.50
    3     6    1.50
    4     6    1.50
    5     8    1.40
    6     6    1.50
    7     6    1.50
    8     6    1.50
    9     6    1.50
   10     1    1.20
   11     1    1.20
   12     1    1.20
   13     1    1.20
   14     1    1.20
   15     1    1.20
   16     1    1.20
   17     1    1.20
   18     1    1.20
   19     1    1.20
   20     1    1.20
   21     1    1.20
   22     1    1.20
   23     1    1.20
   24     1    1.20
   25     1    1.20
   26     1    1.20
   27     1    1.20
 Generate VDW surfaces: Layer= 4 Dens= 6 Start= 1.400 Inc= 0.200

 **********************************************************************

            Electrostatic Properties Using The SCF Density.

 **********************************************************************

       Atomic Center    1 is at   4.906776 -0.488793  0.000574
       Atomic Center    2 is at   3.694339  0.427912  0.000487
       Atomic Center    3 is at   2.391913 -0.367005  0.000213
       Atomic Center    4 is at   1.174628  0.547358  0.000183
       Atomic Center    5 is at  -0.000259 -0.252001  0.000199
       Atomic Center    6 is at  -1.175210  0.547384  0.000069
       Atomic Center    7 is at  -2.391456 -0.367466 -0.000399
       Atomic Center    8 is at  -3.694266  0.428067 -0.000493
       Atomic Center    9 is at  -4.906319 -0.488631 -0.000908
       Atomic Center   10 is at   5.836477  0.089759  0.000339
       Atomic Center   11 is at   4.906371 -1.139178  0.881248
       Atomic Center   12 is at   4.902275 -1.123552 -0.891006
       Atomic Center   13 is at   3.733913  1.076515  0.883106
       Atomic Center   14 is at   3.734365  1.077772 -0.882160
       Atomic Center   15 is at   2.349546 -1.027149 -0.875127
       Atomic Center   16 is at   2.349599 -1.027685  0.875265
       Atomic Center   17 is at   1.163965  1.182344  0.891796
       Atomic Center   18 is at   1.163319  1.183299 -0.891406
       Atomic Center   19 is at  -1.163252  1.182551 -0.891371
       Atomic Center   20 is at  -1.163648  1.182465  0.891434
       Atomic Center   21 is at  -2.350076 -1.027632  0.875037
       Atomic Center   22 is at  -2.350130 -1.027096 -0.875355
       Atomic Center   23 is at  -3.733919  1.076804 -0.882811
       Atomic Center   24 is at  -3.734476  1.077457  0.881871
       Atomic Center   25 is at  -5.835954  0.089800 -0.000583
       Atomic Center   26 is at  -4.906617 -1.139491 -0.880821
       Atomic Center   27 is at  -4.902123 -1.123938  0.890604
      ESP Fit Center   28 is at   5.308593  0.207176  1.940721
      ESP Fit Center   29 is at   4.906776  0.314843  1.940721
      ESP Fit Center   30 is at   5.994689 -0.067333  1.746660
      ESP Fit Center   31 is at   5.768976  0.297206  1.746660
      ESP Fit Center   32 is at   5.426818  0.555592  1.746660
      ESP Fit Center   33 is at   6.391700 -0.488793  1.485498
      ESP Fit Center   34 is at   5.523636  0.861942  1.485498
      ESP Fit Center   35 is at   6.602124 -0.906658  1.167272
      ESP Fit Center   36 is at   6.667606 -1.303439  0.804209
      ESP Fit Center   37 is at   6.325806 -1.981611  0.410264
      ESP Fit Center   38 is at   6.597260 -1.665405  0.410264
      ESP Fit Center   39 is at   6.799506 -1.301027  0.410264
      ESP Fit Center   40 is at   3.740078 -2.234879  0.000574
      ESP Fit Center   41 is at   4.103141 -2.428940  0.000574
      ESP Fit Center   42 is at   4.497086 -2.548442  0.000574
      ESP Fit Center   43 is at   4.906776 -2.588793  0.000574
      ESP Fit Center   44 is at   5.316465 -2.548442  0.000574
      ESP Fit Center   45 is at   5.710411 -2.428940  0.000574
      ESP Fit Center   46 is at   6.073473 -2.234879  0.000574
      ESP Fit Center   47 is at   6.391700 -1.973717  0.000574
      ESP Fit Center   48 is at   6.652862 -1.655490  0.000574
      ESP Fit Center   49 is at   6.846923 -1.292428  0.000574
      ESP Fit Center   50 is at   6.325806 -1.981611 -0.409116
      ESP Fit Center   51 is at   6.597260 -1.665405 -0.409116
      ESP Fit Center   52 is at   6.799506 -1.301027 -0.409116
      ESP Fit Center   53 is at   6.667606 -1.303439 -0.803061
      ESP Fit Center   54 is at   6.602124 -0.906658 -1.166123
      ESP Fit Center   55 is at   6.391700 -0.488793 -1.484350
      ESP Fit Center   56 is at   5.523636  0.861942 -1.484350
      ESP Fit Center   57 is at   5.994689 -0.067333 -1.745512
      ESP Fit Center   58 is at   5.768976  0.297206 -1.745512
      ESP Fit Center   59 is at   5.426818  0.555592 -1.745512
      ESP Fit Center   60 is at   5.308593  0.207176 -1.939573
      ESP Fit Center   61 is at   4.906776  0.314843 -1.939573
      ESP Fit Center   62 is at   3.694339 -0.375723  1.940634
      ESP Fit Center   63 is at   5.113370  1.920731  0.410176
      ESP Fit Center   64 is at   5.179264  1.912836  0.000487
      ESP Fit Center   65 is at   4.861037  2.173998  0.000487
      ESP Fit Center   66 is at   4.497975  2.368059  0.000487
      ESP Fit Center   67 is at   4.104029  2.487561  0.000487
      ESP Fit Center   68 is at   3.694339  2.527912  0.000487
      ESP Fit Center   69 is at   3.284650  2.487561  0.000487
      ESP Fit Center   70 is at   2.890704  2.368059  0.000487
      ESP Fit Center   71 is at   2.527642  2.173998  0.000487
      ESP Fit Center   72 is at   5.113370  1.920731 -0.409203
      ESP Fit Center   73 is at   3.694339 -0.375723 -1.939660
      ESP Fit Center   74 is at   2.391913  0.436630  1.940360
      ESP Fit Center   75 is at   1.225216 -2.113091  0.000213
      ESP Fit Center   76 is at   1.588278 -2.307152  0.000213
      ESP Fit Center   77 is at   1.982224 -2.426654  0.000213
      ESP Fit Center   78 is at   2.391913 -2.467005  0.000213
      ESP Fit Center   79 is at   2.801603 -2.426654  0.000213
      ESP Fit Center   80 is at   3.195549 -2.307152  0.000213
      ESP Fit Center   81 is at   3.558611 -2.113091  0.000213
      ESP Fit Center   82 is at   2.391913  0.436630 -1.939934
      ESP Fit Center   83 is at   0.772811 -0.148611  1.940330
      ESP Fit Center   84 is at   1.174628 -0.256277  1.940330
      ESP Fit Center   85 is at   0.855346 -0.574802  1.746269
      ESP Fit Center   86 is at   2.341326  2.293444  0.000183
      ESP Fit Center   87 is at   1.978263  2.487505  0.000183
      ESP Fit Center   88 is at   1.584318  2.607007  0.000183
      ESP Fit Center   89 is at   1.174628  2.647358  0.000183
      ESP Fit Center   90 is at   0.764939  2.607007  0.000183
      ESP Fit Center   91 is at   0.370993  2.487505  0.000183
      ESP Fit Center   92 is at   0.007931  2.293444  0.000183
      ESP Fit Center   93 is at   0.855346 -0.574802 -1.745903
      ESP Fit Center   94 is at   0.772811 -0.148611 -1.939964
      ESP Fit Center   95 is at   1.174628 -0.256277 -1.939964
      ESP Fit Center   96 is at  -0.000259 -0.252001  1.960199
      ESP Fit Center   97 is at   0.407248 -0.252001  1.917368
      ESP Fit Center   98 is at   0.203495  0.100910  1.917368
      ESP Fit Center   99 is at  -0.204012  0.100910  1.917368
      ESP Fit Center  100 is at  -0.407766 -0.252001  1.917368
      ESP Fit Center  101 is at  -0.204012 -0.604912  1.917368
      ESP Fit Center  102 is at   0.203495 -0.604912  1.917368
      ESP Fit Center  103 is at  -0.690658 -0.650603  1.790748
      ESP Fit Center  104 is at  -0.398861 -0.942400  1.790748
      ESP Fit Center  105 is at  -0.000259 -1.049205  1.790748
      ESP Fit Center  106 is at   0.398343 -0.942400  1.790748
      ESP Fit Center  107 is at   0.690140 -0.650603  1.790748
      ESP Fit Center  108 is at  -0.694530 -1.171364  1.585872
      ESP Fit Center  109 is at  -0.315535 -1.360081  1.585872
      ESP Fit Center  110 is at   0.106040 -1.399146  1.585872
      ESP Fit Center  111 is at   0.513258 -1.283282  1.585872
      ESP Fit Center  112 is at  -0.605337 -1.576938  1.311695
      ESP Fit Center  113 is at  -0.207549 -1.693739  1.311695
      ESP Fit Center  114 is at   0.207032 -1.693739  1.311695
      ESP Fit Center  115 is at   0.604820 -1.576938  1.311695
      ESP Fit Center  116 is at  -0.722981 -1.787863  0.980199
      ESP Fit Center  117 is at  -0.318322 -1.919345  0.980199
      ESP Fit Center  118 is at   0.106322 -1.946061  0.980199
      ESP Fit Center  119 is at   0.524270 -1.866334  0.980199
      ESP Fit Center  120 is at  -0.809049 -1.931471  0.605872
      ESP Fit Center  121 is at  -0.415054 -2.069336  0.605872
      ESP Fit Center  122 is at  -0.000259 -2.116072  0.605872
      ESP Fit Center  123 is at   0.414536 -2.069336  0.605872
      ESP Fit Center  124 is at   0.808531 -1.931471  0.605872
      ESP Fit Center  125 is at  -0.721755 -2.062821  0.205075
      ESP Fit Center  126 is at  -0.315614 -2.175585  0.205075
      ESP Fit Center  127 is at   0.105272 -2.198405  0.205075
      ESP Fit Center  128 is at   0.521224 -2.130213  0.205075
      ESP Fit Center  129 is at   0.912792 -1.974198  0.205075
      ESP Fit Center  130 is at  -0.721755 -2.062821 -0.204677
      ESP Fit Center  131 is at  -0.315614 -2.175585 -0.204677
      ESP Fit Center  132 is at   0.105272 -2.198405 -0.204677
      ESP Fit Center  133 is at   0.521224 -2.130213 -0.204677
      ESP Fit Center  134 is at   0.912792 -1.974198 -0.204677
      ESP Fit Center  135 is at  -0.809049 -1.931471 -0.605474
      ESP Fit Center  136 is at  -0.415054 -2.069336 -0.605474
      ESP Fit Center  137 is at  -0.000259 -2.116072 -0.605474
      ESP Fit Center  138 is at   0.414536 -2.069336 -0.605474
      ESP Fit Center  139 is at   0.808531 -1.931471 -0.605474
      ESP Fit Center  140 is at  -0.722981 -1.787863 -0.979801
      ESP Fit Center  141 is at  -0.318322 -1.919345 -0.979801
      ESP Fit Center  142 is at   0.106322 -1.946061 -0.979801
      ESP Fit Center  143 is at   0.524270 -1.866334 -0.979801
      ESP Fit Center  144 is at  -0.605337 -1.576938 -1.311297
      ESP Fit Center  145 is at  -0.207549 -1.693739 -1.311297
      ESP Fit Center  146 is at   0.207032 -1.693739 -1.311297
      ESP Fit Center  147 is at   0.604820 -1.576938 -1.311297
      ESP Fit Center  148 is at  -0.694530 -1.171364 -1.585474
      ESP Fit Center  149 is at  -0.315535 -1.360081 -1.585474
      ESP Fit Center  150 is at   0.106040 -1.399146 -1.585474
      ESP Fit Center  151 is at   0.513258 -1.283282 -1.585474
      ESP Fit Center  152 is at  -0.690658 -0.650603 -1.790350
      ESP Fit Center  153 is at  -0.398861 -0.942400 -1.790350
      ESP Fit Center  154 is at  -0.000259 -1.049205 -1.790350
      ESP Fit Center  155 is at   0.398343 -0.942400 -1.790350
      ESP Fit Center  156 is at   0.690140 -0.650603 -1.790350
      ESP Fit Center  157 is at   0.407248 -0.252001 -1.916970
      ESP Fit Center  158 is at   0.203495  0.100910 -1.916970
      ESP Fit Center  159 is at  -0.204012  0.100910 -1.916970
      ESP Fit Center  160 is at  -0.407766 -0.252001 -1.916970
      ESP Fit Center  161 is at  -0.204012 -0.604912 -1.916970
      ESP Fit Center  162 is at   0.203495 -0.604912 -1.916970
      ESP Fit Center  163 is at  -0.000259 -0.252001 -1.959801
      ESP Fit Center  164 is at  -1.175210 -0.256251  1.940216
      ESP Fit Center  165 is at  -0.773392 -0.148584  1.940216
      ESP Fit Center  166 is at  -2.435933  2.176105  0.409759
      ESP Fit Center  167 is at  -0.008512  2.293470  0.000069
      ESP Fit Center  168 is at  -0.371574  2.487531  0.000069
      ESP Fit Center  169 is at  -0.765520  2.607033  0.000069
      ESP Fit Center  170 is at  -1.175210  2.647384  0.000069
      ESP Fit Center  171 is at  -1.584899  2.607033  0.000069
      ESP Fit Center  172 is at  -1.978845  2.487531  0.000069
      ESP Fit Center  173 is at  -2.341907  2.293470  0.000069
      ESP Fit Center  174 is at  -2.435933  2.176105 -0.409621
      ESP Fit Center  175 is at  -1.175210 -0.256251 -1.940078
      ESP Fit Center  176 is at  -0.773392 -0.148584 -1.940078
      ESP Fit Center  177 is at  -2.391456  0.436169  1.939748
      ESP Fit Center  178 is at  -3.558153 -2.113552 -0.000399
      ESP Fit Center  179 is at  -3.195091 -2.307613 -0.000399
      ESP Fit Center  180 is at  -2.801145 -2.427115 -0.000399
      ESP Fit Center  181 is at  -2.391456 -2.467466 -0.000399
      ESP Fit Center  182 is at  -1.981766 -2.427115 -0.000399
      ESP Fit Center  183 is at  -1.587820 -2.307613 -0.000399
      ESP Fit Center  184 is at  -1.224758 -2.113552 -0.000399
      ESP Fit Center  185 is at  -2.391456  0.436169 -1.940546
      ESP Fit Center  186 is at  -3.694266 -0.375568  1.939654
      ESP Fit Center  187 is at  -5.257042  1.769666  0.409197
      ESP Fit Center  188 is at  -2.527569  2.174154 -0.000493
      ESP Fit Center  189 is at  -2.890631  2.368214 -0.000493
      ESP Fit Center  190 is at  -3.284577  2.487717 -0.000493
      ESP Fit Center  191 is at  -3.694266  2.528067 -0.000493
      ESP Fit Center  192 is at  -4.103956  2.487717 -0.000493
      ESP Fit Center  193 is at  -4.497902  2.368214 -0.000493
      ESP Fit Center  194 is at  -4.860964  2.174154 -0.000493
      ESP Fit Center  195 is at  -5.179191  1.912992 -0.000493
      ESP Fit Center  196 is at  -5.257042  1.769666 -0.410183
      ESP Fit Center  197 is at  -3.694266 -0.375568 -1.940640
      ESP Fit Center  198 is at  -4.906319  0.315005  1.939239
      ESP Fit Center  199 is at  -5.308137  0.207338  1.939239
      ESP Fit Center  200 is at  -5.225601  0.633529  1.745178
      ESP Fit Center  201 is at  -5.609412  0.442414  1.745178
      ESP Fit Center  202 is at  -5.898266  0.125557  1.745178
      ESP Fit Center  203 is at  -5.523179  0.862104  1.484016
      ESP Fit Center  204 is at  -6.391244 -0.488631  1.484016
      ESP Fit Center  205 is at  -6.601668 -0.906496  1.165790
      ESP Fit Center  206 is at  -6.744906 -1.108122  0.802727
      ESP Fit Center  207 is at  -6.568748 -1.488881  0.802727
      ESP Fit Center  208 is at  -6.707167 -1.488182  0.408782
      ESP Fit Center  209 is at  -6.469095 -1.830229  0.408782
      ESP Fit Center  210 is at  -6.846466 -1.292266 -0.000908
      ESP Fit Center  211 is at  -6.652406 -1.655328 -0.000908
      ESP Fit Center  212 is at  -6.391244 -1.973555 -0.000908
      ESP Fit Center  213 is at  -6.073017 -2.234717 -0.000908
      ESP Fit Center  214 is at  -5.709955 -2.428778 -0.000908
      ESP Fit Center  215 is at  -5.316009 -2.548280 -0.000908
      ESP Fit Center  216 is at  -4.906319 -2.588631 -0.000908
      ESP Fit Center  217 is at  -4.496630 -2.548280 -0.000908
      ESP Fit Center  218 is at  -4.102684 -2.428778 -0.000908
      ESP Fit Center  219 is at  -3.739622 -2.234717 -0.000908
      ESP Fit Center  220 is at  -6.707167 -1.488182 -0.410598
      ESP Fit Center  221 is at  -6.469095 -1.830229 -0.410598
      ESP Fit Center  222 is at  -6.744906 -1.108122 -0.804543
      ESP Fit Center  223 is at  -6.568748 -1.488881 -0.804543
      ESP Fit Center  224 is at  -6.601668 -0.906496 -1.167605
      ESP Fit Center  225 is at  -5.523179  0.862104 -1.485832
      ESP Fit Center  226 is at  -6.391244 -0.488631 -1.485832
      ESP Fit Center  227 is at  -5.225601  0.633529 -1.746994
      ESP Fit Center  228 is at  -5.609412  0.442414 -1.746994
      ESP Fit Center  229 is at  -5.898266  0.125557 -1.746994
      ESP Fit Center  230 is at  -4.906319  0.315005 -1.941055
      ESP Fit Center  231 is at  -5.308137  0.207338 -1.941055
      ESP Fit Center  232 is at   6.271293  0.089759  1.623094
      ESP Fit Center  233 is at   6.053885  0.466321  1.623094
      ESP Fit Center  234 is at   6.676477  0.089759  1.455262
      ESP Fit Center  235 is at   6.563938  0.509759  1.455262
      ESP Fit Center  236 is at   6.256477  0.817221  1.455262
      ESP Fit Center  237 is at   5.836477  0.929759  1.455262
      ESP Fit Center  238 is at   6.563938 -0.330241  1.455262
      ESP Fit Center  239 is at   7.024416  0.089759  1.188278
      ESP Fit Center  240 is at   6.944197  0.518892  1.188278
      ESP Fit Center  241 is at   6.714374  0.890069  1.188278
      ESP Fit Center  242 is at   6.365987  1.153159  1.188278
      ESP Fit Center  243 is at   5.946086  1.272631  1.188278
      ESP Fit Center  244 is at   5.511382  1.232350  1.188278
      ESP Fit Center  245 is at   6.714374 -0.710550  1.188278
      ESP Fit Center  246 is at   6.944197 -0.339374  1.188278
      ESP Fit Center  247 is at   7.291399  0.089759  0.840339
      ESP Fit Center  248 is at   7.226761  0.518605  0.840339
      ESP Fit Center  249 is at   7.038590  0.909346  0.840339
      ESP Fit Center  250 is at   6.743606  1.227264  0.840339
      ESP Fit Center  251 is at   6.368020  1.444109  0.840339
      ESP Fit Center  252 is at   5.945203  1.540614  0.840339
      ESP Fit Center  253 is at   5.512726  1.508204  0.840339
      ESP Fit Center  254 is at   7.038590 -0.729828  0.840339
      ESP Fit Center  255 is at   7.226761 -0.339087  0.840339
      ESP Fit Center  256 is at   7.459232  0.089759  0.435155
      ESP Fit Center  257 is at   7.403938  0.509759  0.435155
      ESP Fit Center  258 is at   7.241824  0.901137  0.435155
      ESP Fit Center  259 is at   6.983938  1.237221  0.435155
      ESP Fit Center  260 is at   6.647854  1.495107  0.435155
      ESP Fit Center  261 is at   6.256477  1.657221  0.435155
      ESP Fit Center  262 is at   5.836477  1.712515  0.435155
      ESP Fit Center  263 is at   5.416477  1.657221  0.435155
      ESP Fit Center  264 is at   6.983938 -1.057702  0.435155
      ESP Fit Center  265 is at   7.241824 -0.721618  0.435155
      ESP Fit Center  266 is at   7.403938 -0.330241  0.435155
      ESP Fit Center  267 is at   7.516477  0.089759  0.000339
      ESP Fit Center  268 is at   7.463696  0.507558  0.000339
      ESP Fit Center  269 is at   7.308672  0.899105  0.000339
      ESP Fit Center  270 is at   7.061144  1.239798  0.000339
      ESP Fit Center  271 is at   6.736666  1.508230  0.000339
      ESP Fit Center  272 is at   6.355625  1.687534  0.000339
      ESP Fit Center  273 is at   5.941965  1.766444  0.000339
      ESP Fit Center  274 is at   5.521676  1.740002  0.000339
      ESP Fit Center  275 is at   7.061144 -1.060280  0.000339
      ESP Fit Center  276 is at   7.308672 -0.719587  0.000339
      ESP Fit Center  277 is at   7.463696 -0.328040  0.000339
      ESP Fit Center  278 is at   7.459232  0.089759 -0.434477
      ESP Fit Center  279 is at   7.403938  0.509759 -0.434477
      ESP Fit Center  280 is at   7.241824  0.901137 -0.434477
      ESP Fit Center  281 is at   6.983938  1.237221 -0.434477
      ESP Fit Center  282 is at   6.647854  1.495107 -0.434477
      ESP Fit Center  283 is at   6.256477  1.657221 -0.434477
      ESP Fit Center  284 is at   5.836477  1.712515 -0.434477
      ESP Fit Center  285 is at   5.416477  1.657221 -0.434477
      ESP Fit Center  286 is at   6.983938 -1.057702 -0.434477
      ESP Fit Center  287 is at   7.241824 -0.721618 -0.434477
      ESP Fit Center  288 is at   7.403938 -0.330241 -0.434477
      ESP Fit Center  289 is at   7.291399  0.089759 -0.839661
      ESP Fit Center  290 is at   7.226761  0.518605 -0.839661
      ESP Fit Center  291 is at   7.038590  0.909346 -0.839661
      ESP Fit Center  292 is at   6.743606  1.227264 -0.839661
      ESP Fit Center  293 is at   6.368020  1.444109 -0.839661
      ESP Fit Center  294 is at   5.945203  1.540614 -0.839661
      ESP Fit Center  295 is at   5.512726  1.508204 -0.839661
      ESP Fit Center  296 is at   7.038590 -0.729828 -0.839661
      ESP Fit Center  297 is at   7.226761 -0.339087 -0.839661
      ESP Fit Center  298 is at   7.024416  0.089759 -1.187601
      ESP Fit Center  299 is at   6.944197  0.518892 -1.187601
      ESP Fit Center  300 is at   6.714374  0.890069 -1.187601
      ESP Fit Center  301 is at   6.365987  1.153159 -1.187601
      ESP Fit Center  302 is at   5.946086  1.272631 -1.187601
      ESP Fit Center  303 is at   5.511382  1.232350 -1.187601
      ESP Fit Center  304 is at   6.714374 -0.710550 -1.187601
      ESP Fit Center  305 is at   6.944197 -0.339374 -1.187601
      ESP Fit Center  306 is at   6.676477  0.089759 -1.454584
      ESP Fit Center  307 is at   6.563938  0.509759 -1.454584
      ESP Fit Center  308 is at   6.256477  0.817221 -1.454584
      ESP Fit Center  309 is at   5.836477  0.929759 -1.454584
      ESP Fit Center  310 is at   6.563938 -0.330241 -1.454584
      ESP Fit Center  311 is at   6.271293  0.089759 -1.622417
      ESP Fit Center  312 is at   6.053885  0.466321 -1.622417
      ESP Fit Center  313 is at   4.906371 -1.139178  2.561248
      ESP Fit Center  314 is at   5.341187 -1.139178  2.504004
      ESP Fit Center  315 is at   5.123779 -0.762617  2.504004
      ESP Fit Center  316 is at   4.688963 -0.762617  2.504004
      ESP Fit Center  317 is at   4.471555 -1.139178  2.504004
      ESP Fit Center  318 is at   4.688963 -1.515740  2.504004
      ESP Fit Center  319 is at   5.123779 -1.515740  2.504004
      ESP Fit Center  320 is at   5.746371 -1.139178  2.336171
      ESP Fit Center  321 is at   5.633833 -0.719178  2.336171
      ESP Fit Center  322 is at   5.326371 -0.411717  2.336171
      ESP Fit Center  323 is at   4.906371 -0.299178  2.336171
      ESP Fit Center  324 is at   4.486371 -0.411717  2.336171
      ESP Fit Center  325 is at   4.178910 -0.719178  2.336171
      ESP Fit Center  326 is at   4.066371 -1.139178  2.336171
      ESP Fit Center  327 is at   4.178910 -1.559178  2.336171
      ESP Fit Center  328 is at   4.486371 -1.866640  2.336171
      ESP Fit Center  329 is at   4.906371 -1.979178  2.336171
      ESP Fit Center  330 is at   5.326371 -1.866640  2.336171
      ESP Fit Center  331 is at   5.633833 -1.559178  2.336171
      ESP Fit Center  332 is at   6.094311 -1.139178  2.069188
      ESP Fit Center  333 is at   6.014092 -0.710045  2.069188
      ESP Fit Center  334 is at   5.784269 -0.338869  2.069188
      ESP Fit Center  335 is at   5.435881 -0.075778  2.069188
      ESP Fit Center  336 is at   5.015981  0.043694  2.069188
      ESP Fit Center  337 is at   4.581276  0.003412  2.069188
      ESP Fit Center  338 is at   4.190478 -0.191182  2.069188
      ESP Fit Center  339 is at   3.896365 -0.513809  2.069188
      ESP Fit Center  340 is at   3.738659 -0.920895  2.069188
      ESP Fit Center  341 is at   3.738659 -1.357461  2.069188
      ESP Fit Center  342 is at   3.896365 -1.764548  2.069188
      ESP Fit Center  343 is at   4.190478 -2.087174  2.069188
      ESP Fit Center  344 is at   4.581276 -2.281769  2.069188
      ESP Fit Center  345 is at   5.015981 -2.322050  2.069188
      ESP Fit Center  346 is at   5.435881 -2.202578  2.069188
      ESP Fit Center  347 is at   5.784269 -1.939488  2.069188
      ESP Fit Center  348 is at   6.014092 -1.568311  2.069188
      ESP Fit Center  349 is at   6.361294 -1.139178  1.721248
      ESP Fit Center  350 is at   6.296656 -0.710332  1.721248
      ESP Fit Center  351 is at   6.108485 -0.319591  1.721248
      ESP Fit Center  352 is at   3.839838 -2.128777  1.721248
      ESP Fit Center  353 is at   4.178910 -2.399178  1.721248
      ESP Fit Center  354 is at   4.582621 -2.557623  1.721248
      ESP Fit Center  355 is at   5.015098 -2.590033  1.721248
      ESP Fit Center  356 is at   5.437914 -2.493528  1.721248
      ESP Fit Center  357 is at   5.813501 -2.276683  1.721248
      ESP Fit Center  358 is at   6.108485 -1.958765  1.721248
      ESP Fit Center  359 is at   6.296656 -1.568024  1.721248
      ESP Fit Center  360 is at   6.529127 -1.139178  1.316064
      ESP Fit Center  361 is at   3.758910 -2.286640  1.316064
      ESP Fit Center  362 is at   4.094994 -2.544526  1.316064
      ESP Fit Center  363 is at   4.486371 -2.706640  1.316064
      ESP Fit Center  364 is at   4.906371 -2.761934  1.316064
      ESP Fit Center  365 is at   5.326371 -2.706640  1.316064
      ESP Fit Center  366 is at   5.717749 -2.544526  1.316064
      ESP Fit Center  367 is at   6.053833 -2.286640  1.316064
      ESP Fit Center  368 is at   6.311719 -1.950556  1.316064
      ESP Fit Center  369 is at   6.473833 -1.559178  1.316064
      ESP Fit Center  370 is at   3.835499 -2.433640  0.881248
[...]
 6447 Fit       0.004542
 6448 Fit       0.004463
 6449 Fit       0.004460
 6450 Fit       0.004496
 6451 Fit       0.004522
 6452 Fit      -0.001028
 6453 Fit      -0.002258
 6454 Fit      -0.001163
 6455 Fit      -0.000165
 6456 Fit      -0.000110
 6457 Fit      -0.000876
 6458 Fit      -0.001979
 6459 Fit      -0.003954
 6460 Fit      -0.002848
 6461 Fit      -0.001220
 6462 Fit       0.000054
 6463 Fit       0.000659
 6464 Fit       0.000778
 6465 Fit       0.000611
 6466 Fit       0.000115
 6467 Fit      -0.000749
 6468 Fit      -0.001868
 6469 Fit      -0.003055
 6470 Fit      -0.003939
 6471 Fit      -0.006359
 6472 Fit      -0.005177
 6473 Fit      -0.003171
 6474 Fit      -0.001104
 6475 Fit       0.000417
 6476 Fit       0.001237
 6477 Fit       0.001509
 6478 Fit       0.001474
 6479 Fit       0.001371
 6480 Fit       0.001246
 6481 Fit       0.000905
 6482 Fit       0.000233
 6483 Fit      -0.000683
 6484 Fit      -0.001757
 6485 Fit      -0.002970
 6486 Fit      -0.004283
 6487 Fit      -0.005537
 6488 Fit      -0.006387
 6489 Fit      -0.009893
 6490 Fit       0.000661
 6491 Fit      -0.000358
 6492 Fit      -0.001433
 6493 Fit      -0.002599
 6494 Fit      -0.003917
 6495 Fit      -0.005415
 6496 Fit      -0.007045
 6497 Fit      -0.008624
 6498 Fit      -0.009766
 6499 Fit      -0.000872
 6500 Fit      -0.002028
 6501 Fit      -0.003252
 6502 Fit      -0.004655
 6503 Fit      -0.006313
 6504 Fit      -0.008265
 6505 Fit      -0.010476
 6506 Fit      -0.012763
 6507 Fit      -0.001621
 6508 Fit      -0.002781
 6509 Fit      -0.004022
 6510 Fit      -0.005470
 6511 Fit      -0.007224
 6512 Fit      -0.009378
 6513 Fit      -0.012008
 6514 Fit      -0.015149
 6515 Fit      -0.001811
 6516 Fit      -0.002990
 6517 Fit      -0.004201
 6518 Fit      -0.005611
 6519 Fit      -0.007346
 6520 Fit      -0.009536
 6521 Fit      -0.012344
 6522 Fit      -0.015973
 6523 Fit      -0.003367
 6524 Fit      -0.004484
 6525 Fit      -0.005798
 6526 Fit      -0.007431
 6527 Fit      -0.009518
 6528 Fit      -0.012243
 6529 Fit      -0.015877
 6530 Fit      -0.004567
 6531 Fit      -0.005693
 6532 Fit      -0.007125
 6533 Fit      -0.008971
 6534 Fit      -0.011395
 6535 Fit      -0.014652
 6536 Fit      -0.019159
 6537 Fit      -0.006156
 6538 Fit      -0.007590
 6539 Fit      -0.009501
 6540 Fit      -0.012066
 6541 Fit      -0.015598
 6542 Fit      -0.006155
 6543 Fit      -0.007590
 6544 Fit      -0.009500
 6545 Fit      -0.012065
 6546 Fit      -0.015597
 6547 Fit      -0.004565
 6548 Fit      -0.005692
 6549 Fit      -0.007124
 6550 Fit      -0.008970
 6551 Fit      -0.011394
 6552 Fit      -0.014650
 6553 Fit      -0.019157
 6554 Fit      -0.003364
 6555 Fit      -0.004482
 6556 Fit      -0.005796
 6557 Fit      -0.007429
 6558 Fit      -0.009516
 6559 Fit      -0.012241
 6560 Fit      -0.015875
 6561 Fit      -0.001807
 6562 Fit      -0.002988
 6563 Fit      -0.004199
 6564 Fit      -0.005610
 6565 Fit      -0.007344
 6566 Fit      -0.009535
 6567 Fit      -0.012342
 6568 Fit      -0.015970
 6569 Fit      -0.001618
 6570 Fit      -0.002779
 6571 Fit      -0.004020
 6572 Fit      -0.005468
 6573 Fit      -0.007223
 6574 Fit      -0.009376
 6575 Fit      -0.012006
 6576 Fit      -0.015146
 6577 Fit      -0.000871
 6578 Fit      -0.002026
 6579 Fit      -0.003251
 6580 Fit      -0.004653
 6581 Fit      -0.006312
 6582 Fit      -0.008264
 6583 Fit      -0.010474
 6584 Fit      -0.012761
 6585 Fit      -0.009891
 6586 Fit       0.000661
 6587 Fit      -0.000357
 6588 Fit      -0.001432
 6589 Fit      -0.002598
 6590 Fit      -0.003916
 6591 Fit      -0.005414
 6592 Fit      -0.007044
 6593 Fit      -0.008623
 6594 Fit      -0.009764
 6595 Fit      -0.006357
 6596 Fit      -0.005176
 6597 Fit      -0.003170
 6598 Fit      -0.001103
 6599 Fit       0.000417
 6600 Fit       0.001238
 6601 Fit       0.001510
 6602 Fit       0.001474
 6603 Fit       0.001370
 6604 Fit       0.001245
 6605 Fit       0.000904
 6606 Fit       0.000233
 6607 Fit      -0.000683
 6608 Fit      -0.001756
 6609 Fit      -0.002969
 6610 Fit      -0.004282
 6611 Fit      -0.005535
 6612 Fit      -0.006385
 6613 Fit      -0.003953
 6614 Fit      -0.002847
 6615 Fit      -0.001220
 6616 Fit       0.000054
 6617 Fit       0.000659
 6618 Fit       0.000777
 6619 Fit       0.000611
 6620 Fit       0.000115
 6621 Fit      -0.000749
 6622 Fit      -0.001867
 6623 Fit      -0.003054
 6624 Fit      -0.003938
 6625 Fit      -0.002257
 6626 Fit      -0.001163
 6627 Fit      -0.000165
 6628 Fit      -0.000110
 6629 Fit      -0.000875
 6630 Fit      -0.001979
 6631 Fit      -0.001028
 6632 Fit       0.003492
 6633 Fit       0.002809
 6634 Fit       0.002284
 6635 Fit       0.001886
 6636 Fit       0.001598
 6637 Fit       0.003902
 6638 Fit       0.003259
 6639 Fit       0.002757
 6640 Fit       0.002363
 6641 Fit       0.002055
 6642 Fit       0.001828
 6643 Fit       0.001684
 6644 Fit       0.001637
 6645 Fit       0.004015
 6646 Fit       0.003448
 6647 Fit       0.003003
 6648 Fit       0.002643
 6649 Fit       0.002351
 6650 Fit       0.002117
 6651 Fit       0.001942
 6652 Fit       0.001826
 6653 Fit       0.001769
 6654 Fit       0.004590
 6655 Fit       0.003975
 6656 Fit       0.003502
 6657 Fit       0.003118
 6658 Fit       0.002793
 6659 Fit       0.002512
 6660 Fit       0.002267
 6661 Fit       0.002048
 6662 Fit       0.001832
 6663 Fit       0.004996
 6664 Fit       0.004377
 6665 Fit       0.003904
 6666 Fit       0.003516
 6667 Fit       0.003179
 6668 Fit       0.002873
 6669 Fit       0.002586
 6670 Fit       0.002304
 6671 Fit       0.002004
 6672 Fit       0.001638
 6673 Fit       0.004889
 6674 Fit       0.004396
 6675 Fit       0.003982
 6676 Fit       0.003620
 6677 Fit       0.003286
 6678 Fit       0.002963
 6679 Fit       0.002636
 6680 Fit       0.002288
 6681 Fit       0.001889
 6682 Fit       0.001397
 6683 Fit       0.004509
 6684 Fit       0.004236
 6685 Fit       0.003926
 6686 Fit       0.003609
 6687 Fit       0.003285
 6688 Fit       0.002948
 6689 Fit       0.002585
 6690 Fit       0.002184
 6691 Fit       0.001738
 6692 Fit       0.001281
 6693 Fit       0.003041
 6694 Fit       0.003666
 6695 Fit       0.003925
 6696 Fit       0.003883
 6697 Fit       0.003682
 6698 Fit       0.003402
 6699 Fit       0.003070
 6700 Fit       0.002694
 6701 Fit       0.002283
 6702 Fit       0.001870
 6703 Fit       0.001552
 6704 Fit       0.001457
 6705 Fit       0.001576
 6706 Fit       0.001695
 6707 Fit       0.001697
 6708 Fit       0.001672
 6709 Fit       0.001808
 6710 Fit       0.002294
 6711 Fit       0.002843
 6712 Fit       0.003316
 6713 Fit       0.003450
 6714 Fit       0.003302
 6715 Fit       0.002987
 6716 Fit       0.002581
 6717 Fit       0.002171
 6718 Fit       0.001893
 6719 Fit       0.001825
 6720 Fit       0.001862
 6721 Fit       0.001961
 6722 Fit       0.002281
 6723 Fit       0.002710
 6724 Fit       0.003009
 6725 Fit       0.002818
 6726 Fit       0.002403
 6727 Fit       0.002173
 6728 Fit       0.002280
 6729 Fit       0.002576
 6730 Fit       0.002576
 6731 Fit       0.002711
 6732 Fit       0.003009
 6733 Fit       0.002818
 6734 Fit       0.002403
 6735 Fit       0.002173
 6736 Fit       0.002281
 6737 Fit       0.002844
 6738 Fit       0.003316
 6739 Fit       0.003450
 6740 Fit       0.003302
 6741 Fit       0.002986
 6742 Fit       0.002581
 6743 Fit       0.002171
 6744 Fit       0.001893
 6745 Fit       0.001826
 6746 Fit       0.001863
 6747 Fit       0.001962
 6748 Fit       0.002281
 6749 Fit       0.003042
 6750 Fit       0.003667
 6751 Fit       0.003925
 6752 Fit       0.003883
 6753 Fit       0.003683
 6754 Fit       0.003402
 6755 Fit       0.003070
 6756 Fit       0.002694
 6757 Fit       0.002282
 6758 Fit       0.001870
 6759 Fit       0.001552
 6760 Fit       0.001459
 6761 Fit       0.001578
 6762 Fit       0.001697
 6763 Fit       0.001699
 6764 Fit       0.001673
 6765 Fit       0.001809
 6766 Fit       0.002295
 6767 Fit       0.004510
 6768 Fit       0.004237
 6769 Fit       0.003926
 6770 Fit       0.003609
 6771 Fit       0.003285
 6772 Fit       0.002947
 6773 Fit       0.002584
 6774 Fit       0.002183
 6775 Fit       0.001737
 6776 Fit       0.001280
 6777 Fit       0.004890
 6778 Fit       0.004397
 6779 Fit       0.003983
 6780 Fit       0.003620
 6781 Fit       0.003286
 6782 Fit       0.002963
 6783 Fit       0.002636
 6784 Fit       0.002288
 6785 Fit       0.001888
 6786 Fit       0.001396
 6787 Fit       0.004997
 6788 Fit       0.004377
 6789 Fit       0.003905
 6790 Fit       0.003516
 6791 Fit       0.003179
 6792 Fit       0.002873
 6793 Fit       0.002586
 6794 Fit       0.002303
 6795 Fit       0.002003
 6796 Fit       0.001637
 6797 Fit       0.004590
 6798 Fit       0.003975
 6799 Fit       0.003503
 6800 Fit       0.003118
 6801 Fit       0.002793
 6802 Fit       0.002513
 6803 Fit       0.002267
 6804 Fit       0.002047
 6805 Fit       0.001831
 6806 Fit       0.004016
 6807 Fit       0.003449
 6808 Fit       0.003003
 6809 Fit       0.002644
 6810 Fit       0.002351
 6811 Fit       0.002117
 6812 Fit       0.001941
 6813 Fit       0.001825
 6814 Fit       0.001767
 6815 Fit       0.003903
 6816 Fit       0.003260
 6817 Fit       0.002758
 6818 Fit       0.002363
 6819 Fit       0.002056
 6820 Fit       0.001828
 6821 Fit       0.001684
 6822 Fit       0.001637
 6823 Fit       0.003492
 6824 Fit       0.002810
 6825 Fit       0.002285
 6826 Fit       0.001887
 6827 Fit       0.001599
 6828 Fit       0.000705
 6829 Fit       0.000482
 6830 Fit       0.000144
 6831 Fit      -0.000320
 6832 Fit       0.001241
 6833 Fit       0.001128
 6834 Fit       0.000955
 6835 Fit       0.000668
 6836 Fit       0.000252
 6837 Fit      -0.000274
 6838 Fit       0.001669
 6839 Fit       0.001598
 6840 Fit       0.001569
 6841 Fit       0.001490
 6842 Fit       0.001314
 6843 Fit       0.001014
 6844 Fit       0.000587
 6845 Fit       0.000048
 6846 Fit      -0.000566
 6847 Fit       0.001773
 6848 Fit       0.001826
 6849 Fit       0.001882
 6850 Fit       0.001885
 6851 Fit       0.001804
 6852 Fit       0.001614
 6853 Fit       0.001307
 6854 Fit       0.000881
 6855 Fit       0.000349
 6856 Fit      -0.000263
 6857 Fit      -0.000917
 6858 Fit       0.001864
 6859 Fit       0.002026
 6860 Fit       0.002126
 6861 Fit       0.002144
 6862 Fit       0.002062
 6863 Fit       0.001867
 6864 Fit       0.001552
 6865 Fit       0.001118
 6866 Fit       0.000577
 6867 Fit      -0.000050
 6868 Fit      -0.000732
 6869 Fit       0.002003
 6870 Fit       0.002192
 6871 Fit       0.002295
 6872 Fit       0.002306
 6873 Fit       0.002214
 6874 Fit       0.002011
 6875 Fit       0.001693
 6876 Fit       0.001263
 6877 Fit       0.000730
 6878 Fit       0.000111
 6879 Fit      -0.000566
 6880 Fit      -0.001271
 6881 Fit       0.001946
 6882 Fit       0.002178
 6883 Fit       0.002318
 6884 Fit       0.002370
 6885 Fit       0.002324
 6886 Fit       0.002172
 6887 Fit       0.001910
 6888 Fit       0.001537
 6889 Fit       0.001059
 6890 Fit       0.000489
 6891 Fit      -0.000153
 6892 Fit      -0.000841
 6893 Fit       0.002004
 6894 Fit       0.002192
 6895 Fit       0.002295
 6896 Fit       0.002306
 6897 Fit       0.002215
 6898 Fit       0.002012
 6899 Fit       0.001694
 6900 Fit       0.001263
 6901 Fit       0.000730
 6902 Fit       0.000112
 6903 Fit      -0.000566
 6904 Fit      -0.001271
 6905 Fit       0.001865
 6906 Fit       0.002028
 6907 Fit       0.002128
 6908 Fit       0.002146
 6909 Fit       0.002064
 6910 Fit       0.001869
 6911 Fit       0.001553
 6912 Fit       0.001119
 6913 Fit       0.000579
 6914 Fit      -0.000048
 6915 Fit      -0.000731
 6916 Fit       0.001775
 6917 Fit       0.001828
 6918 Fit       0.001884
 6919 Fit       0.001888
 6920 Fit       0.001806
 6921 Fit       0.001616
 6922 Fit       0.001309
 6923 Fit       0.000883
 6924 Fit       0.000351
 6925 Fit      -0.000262
 6926 Fit      -0.000915
 6927 Fit       0.001671
 6928 Fit       0.001601
 6929 Fit       0.001571
 6930 Fit       0.001493
 6931 Fit       0.001316
 6932 Fit       0.001017
 6933 Fit       0.000590
 6934 Fit       0.000050
 6935 Fit      -0.000564
 6936 Fit       0.001244
 6937 Fit       0.001132
 6938 Fit       0.000958
 6939 Fit       0.000671
 6940 Fit       0.000255
 6941 Fit      -0.000272
 6942 Fit       0.000708
 6943 Fit       0.000485
 6944 Fit       0.000147
 6945 Fit      -0.000317
 6946 Fit      -0.002352
 6947 Fit      -0.002536
 6948 Fit      -0.002843
 6949 Fit      -0.003291
 6950 Fit      -0.001811
 6951 Fit      -0.001741
 6952 Fit      -0.001743
 6953 Fit      -0.001835
 6954 Fit      -0.002028
 6955 Fit      -0.002335
 6956 Fit      -0.002764
 6957 Fit      -0.003315
 6958 Fit      -0.001467
 6959 Fit      -0.001313
 6960 Fit      -0.001206
 6961 Fit      -0.001167
 6962 Fit      -0.001212
 6963 Fit      -0.001354
 6964 Fit      -0.001599
 6965 Fit      -0.001944
 6966 Fit      -0.002369
 6967 Fit      -0.001293
 6968 Fit      -0.001110
 6969 Fit      -0.000919
 6970 Fit      -0.000756
 6971 Fit      -0.000651
 6972 Fit      -0.000624
 6973 Fit      -0.000686
 6974 Fit      -0.000843
 6975 Fit      -0.001089
 6976 Fit      -0.001396
 6977 Fit      -0.001681
 6978 Fit      -0.000981
 6979 Fit      -0.000807
 6980 Fit      -0.000600
 6981 Fit      -0.000402
 6982 Fit      -0.000244
 6983 Fit      -0.000149
 6984 Fit      -0.000135
 6985 Fit      -0.000207
 6986 Fit      -0.000359
 6987 Fit      -0.000565
 6988 Fit      -0.000758
 6989 Fit      -0.000789
 6990 Fit      -0.000669
 6991 Fit      -0.000520
 6992 Fit      -0.000314
 6993 Fit      -0.000094
 6994 Fit       0.000099
 6995 Fit       0.000233
 6996 Fit       0.000288
 6997 Fit       0.000257
 6998 Fit       0.000151
 6999 Fit       0.000013
 7000 Fit      -0.000071
 7001 Fit       0.000057
 7002 Fit      -0.000286
 7003 Fit      -0.000226
 7004 Fit      -0.000068
 7005 Fit       0.000141
 7006 Fit       0.000350
 7007 Fit       0.000516
 7008 Fit       0.000609
 7009 Fit       0.000621
 7010 Fit       0.000566
 7011 Fit       0.000496
 7012 Fit       0.000503
 7013 Fit       0.000691
 7014 Fit       0.001300
 7015 Fit       0.001482
 7016 Fit       0.001591
 7017 Fit       0.001559
 7018 Fit       0.001301
 7019 Fit       0.000879
 7020 Fit       0.000478
 7021 Fit       0.000232
 7022 Fit       0.000172
 7023 Fit       0.000264
 7024 Fit       0.000444
 7025 Fit       0.000641
 7026 Fit       0.000795
 7027 Fit       0.000872
 7028 Fit       0.000877
 7029 Fit       0.000863
 7030 Fit       0.000914
 7031 Fit       0.001079
 7032 Fit       0.001285
 7033 Fit       0.001376
 7034 Fit       0.001318
 7035 Fit       0.001064
 7036 Fit       0.000753
 7037 Fit       0.000590
 7038 Fit       0.000630
 7039 Fit       0.000793
 7040 Fit       0.000957
 7041 Fit       0.001047
 7042 Fit       0.001086
 7043 Fit       0.001158
 7044 Fit       0.001243
 7045 Fit       0.001197
 7046 Fit       0.000980
 7047 Fit       0.000922
 7048 Fit       0.001059
 7049 Fit       0.001168
 7050 Fit       0.001126
 7051 Fit       0.001129
 7052 Fit       0.001245
 7053 Fit       0.001199
 7054 Fit       0.000983
 7055 Fit       0.000924
 7056 Fit       0.001061
 7057 Fit       0.001170
 7058 Fit       0.001286
 7059 Fit       0.001378
 7060 Fit       0.001320
 7061 Fit       0.001067
 7062 Fit       0.000756
 7063 Fit       0.000593
 7064 Fit       0.000633
 7065 Fit       0.000796
 7066 Fit       0.000959
 7067 Fit       0.001049
 7068 Fit       0.001087
 7069 Fit       0.001159
 7070 Fit       0.001301
 7071 Fit       0.001483
 7072 Fit       0.001593
 7073 Fit       0.001560
 7074 Fit       0.001302
 7075 Fit       0.000881
 7076 Fit       0.000481
 7077 Fit       0.000235
 7078 Fit       0.000176
 7079 Fit       0.000268
 7080 Fit       0.000447
 7081 Fit       0.000643
 7082 Fit       0.000796
 7083 Fit       0.000873
 7084 Fit       0.000878
 7085 Fit       0.000864
 7086 Fit       0.000915
 7087 Fit       0.001080
 7088 Fit      -0.000282
 7089 Fit      -0.000223
 7090 Fit      -0.000065
 7091 Fit       0.000143
 7092 Fit       0.000352
 7093 Fit       0.000517
 7094 Fit       0.000610
 7095 Fit       0.000621
 7096 Fit       0.000566
 7097 Fit       0.000496
 7098 Fit       0.000503
 7099 Fit       0.000691
 7100 Fit      -0.000666
 7101 Fit      -0.000517
 7102 Fit      -0.000311
 7103 Fit      -0.000092
 7104 Fit       0.000100
 7105 Fit       0.000234
 7106 Fit       0.000288
 7107 Fit       0.000257
 7108 Fit       0.000151
 7109 Fit       0.000012
 7110 Fit      -0.000071
 7111 Fit       0.000057
 7112 Fit      -0.000979
 7113 Fit      -0.000805
 7114 Fit      -0.000599
 7115 Fit      -0.000401
 7116 Fit      -0.000243
 7117 Fit      -0.000150
 7118 Fit      -0.000135
 7119 Fit      -0.000208
 7120 Fit      -0.000360
 7121 Fit      -0.000566
 7122 Fit      -0.000758
 7123 Fit      -0.000789
 7124 Fit      -0.001291
 7125 Fit      -0.001109
 7126 Fit      -0.000918
 7127 Fit      -0.000756
 7128 Fit      -0.000652
 7129 Fit      -0.000624
 7130 Fit      -0.000687
 7131 Fit      -0.000844
 7132 Fit      -0.001090
 7133 Fit      -0.001397
 7134 Fit      -0.001682
 7135 Fit      -0.001466
 7136 Fit      -0.001313
 7137 Fit      -0.001207
 7138 Fit      -0.001168
 7139 Fit      -0.001214
 7140 Fit      -0.001356
 7141 Fit      -0.001601
 7142 Fit      -0.001946
 7143 Fit      -0.002371
 7144 Fit      -0.001811
 7145 Fit      -0.001742
 7146 Fit      -0.001745
 7147 Fit      -0.001837
 7148 Fit      -0.002031
 7149 Fit      -0.002338
 7150 Fit      -0.002766
 7151 Fit      -0.003317
 7152 Fit      -0.002354
 7153 Fit      -0.002538
 7154 Fit      -0.002845
 7155 Fit      -0.003293
 -----------------------------------------------------------------
 Leave Link  602 at Thu Nov  2 13:06:42 2023, MaxMem=   134217728 cpu:               0.6 elap:               0.6

 Test job not archived.
 1\1\GINC-LAC-394\FOpt\RHF\6-31G(d)\C8H18O1\RAHNAMOU\02-Nov-2023\0\\#HF
 /6-31G* SCF=tight Pop=MK iop(6/33=2) iop(6/42=6) opt\\mobley_129464\\0
 ,1\C,0.6889119262,-2.2121716875,-0.8375979512\C,-0.4098019599,-2.63350
 68986,0.1376452884\C,-1.8039736314,-2.5952260237,-0.4900568324\C,-2.89
 83492444,-3.0132804476,0.477083431\O,-4.1280186931,-2.9477979187,-0.18
 01902692\C,-5.2277064456,-3.3089789916,0.5999562722\C,-6.4857933607,-3
 .1896079929,-0.2431091219\C,-7.7537374397,-3.5656810216,0.5250541631\C
 ,-9.0175947814,-3.4448864506,-0.3257532091\H,1.6667513277,-2.248517164
 9,-0.367546536\H,0.7135031959,-2.8652989527,-1.705117354\H,0.529122552
 5,-1.1981948516,-1.1926801244\H,-0.2015121153,-3.6379124734,0.50076791
 72\H,-0.3849803482,-1.9824611313,1.0091905945\H,-2.0244751299,-1.59299
 60024,-0.8473330581\H,-1.8409238859,-3.2504801337,-1.3560837813\H,-2.7
 191152468,-4.0269340853,0.8372754001\H,-2.903945731,-2.3585965685,1.34
 92731574\H,-5.295167417,-2.6621269736,1.4753906916\H,-5.1103993901,-4.
 3304835261,0.9634416037\H,-6.3766296395,-3.8264163408,-1.1167736065\H,
 -6.560153296,-2.1688750315,-0.6082100543\H,-7.8497964135,-2.9296192012
 ,1.4027040628\H,-7.6663114524,-4.5852789289,0.8949765034\H,-9.90152272
 24,-3.7167974223,0.2427315954\H,-9.1529163079,-2.4281453787,-0.6830947
 933\H,-8.96846435,-4.0957284001,-1.1939439894\\Version=ES64L-G16RevC.0
 1\State=1-A\HF=-388.2834564\RMSD=8.885e-09\RMSF=1.347e-05\Dipole=0.039
 8155,-0.1307065,0.4403649\Quadrupole=1.0001323,-0.1026507,-0.8974816,0
 .156356,-0.1329148,0.2471224\PG=C01 [X(C8H18O1)]\\@


 LET US PLACE AT THE END OF EVERY CHAPTER.....THE
 TWO LETTERS USED BY THE ROMAN JUDGES WHEN THEY DID
 NOT UNDERSTAND A PLEADING.
 N. L. -NON LIQUET- IT IS NOT CLEAR.
                                              -- VOLTAIRE
 Job cpu time:       0 days  0 hours  1 minutes  8.3 seconds.
 Elapsed time:       0 days  0 hours  1 minutes  7.4 seconds.
 File lengths (MBytes):  RWF=    272 Int=      0 D2E=      0 Chk=     32 Scr=     32
 Normal termination of Gaussian 16 at Thu Nov  2 13:06:42 2023.
