 Entering Gaussian System, Link 0=/opt/software/Gaussian/g16-AVX2-C.01/g16/g16
 Input=mobley_1079207.com
 Output=mobley_1079207.log
 Initial command:
 /opt/software/Gaussian/g16-AVX2-C.01/g16/l1.exe "/mnt/gs21/scratch/rahnamou/Gau-5355.inp" -scrdir="/mnt/gs21/scratch/rahnamou/"
 Entering Link 1 = /opt/software/Gaussian/g16-AVX2-C.01/g16/l1.exe PID=      5366.
  
 Copyright (c) 1988-2019, Gaussian, Inc.  All Rights Reserved.
  
 This is part of the Gaussian(R) 16 program.  It is based on
 the Gaussian(R) 09 system (copyright 2009, Gaussian, Inc.),
 the Gaussian(R) 03 system (copyright 2003, Gaussian, Inc.),
 the Gaussian(R) 98 system (copyright 1998, Gaussian, Inc.),
 the Gaussian(R) 94 system (copyright 1995, Gaussian, Inc.),
 the Gaussian 92(TM) system (copyright 1992, Gaussian, Inc.),
 the Gaussian 90(TM) system (copyright 1990, Gaussian, Inc.),
 the Gaussian 88(TM) system (copyright 1988, Gaussian, Inc.),
 the Gaussian 86(TM) system (copyright 1986, Carnegie Mellon
 University), and the Gaussian 82(TM) system (copyright 1983,
 Carnegie Mellon University). Gaussian is a federally registered
 trademark of Gaussian, Inc.
  
 This software contains proprietary and confidential information,
 including trade secrets, belonging to Gaussian, Inc.
  
 This software is provided under written license and may be
 used, copied, transmitted, or stored only in accord with that
 written license.
  
 The following legend is applicable only to US Government
 contracts under FAR:
  
                    RESTRICTED RIGHTS LEGEND
  
 Use, reproduction and disclosure by the US Government is
 subject to restrictions as set forth in subparagraphs (a)
 and (c) of the Commercial Computer Software - Restricted
 Rights clause in FAR 52.227-19.
  
 Gaussian, Inc.
 340 Quinnipiac St., Bldg. 40, Wallingford CT 06492
  
  
 ---------------------------------------------------------------
 Warning -- This program may not be used in any manner that
 competes with the business of Gaussian, Inc. or will provide
 assistance to any competitor of Gaussian, Inc.  The licensee
 of this program is prohibited from giving any competitor of
 Gaussian, Inc. access to this program.  By using this program,
 the user acknowledges that Gaussian, Inc. is engaged in the
 business of creating and licensing software in the field of
 computational chemistry and represents and warrants to the
 licensee that it is not a competitor of Gaussian, Inc. and that
 it will not use this program in any manner prohibited above.
 ---------------------------------------------------------------
  

 Cite this work as:
 Gaussian 16, Revision C.01,
 M. J. Frisch, G. W. Trucks, H. B. Schlegel, G. E. Scuseria, 
 M. A. Robb, J. R. Cheeseman, G. Scalmani, V. Barone, 
 G. A. Petersson, H. Nakatsuji, X. Li, M. Caricato, A. V. Marenich, 
 J. Bloino, B. G. Janesko, R. Gomperts, B. Mennucci, H. P. Hratchian, 
 J. V. Ortiz, A. F. Izmaylov, J. L. Sonnenberg, D. Williams-Young, 
 F. Ding, F. Lipparini, F. Egidi, J. Goings, B. Peng, A. Petrone, 
 T. Henderson, D. Ranasinghe, V. G. Zakrzewski, J. Gao, N. Rega, 
 G. Zheng, W. Liang, M. Hada, M. Ehara, K. Toyota, R. Fukuda, 
 J. Hasegawa, M. Ishida, T. Nakajima, Y. Honda, O. Kitao, H. Nakai, 
 T. Vreven, K. Throssell, J. A. Montgomery, Jr., J. E. Peralta, 
 F. Ogliaro, M. J. Bearpark, J. J. Heyd, E. N. Brothers, K. N. Kudin, 
 V. N. Staroverov, T. A. Keith, R. Kobayashi, J. Normand, 
 K. Raghavachari, A. P. Rendell, J. C. Burant, S. S. Iyengar, 
 J. Tomasi, M. Cossi, J. M. Millam, M. Klene, C. Adamo, R. Cammi, 
 J. W. Ochterski, R. L. Martin, K. Morokuma, O. Farkas, 
 J. B. Foresman, and D. J. Fox, Gaussian, Inc., Wallingford CT, 2019.
 
 ******************************************
 Gaussian 16:  ES64L-G16RevC.01  3-Jul-2019
                 2-Nov-2023 
 ******************************************
 %chk=mobley_1079207.chk
 %mem=1GB
 %NProcShared=1
 Will use up to    1 processors via shared memory.
 -------------------------------------------------------
 #HF/6-31G* SCF=tight Pop=MK iop(6/33=2) iop(6/42=6) opt
 -------------------------------------------------------
 1/18=20,19=15,38=1/1,3;
 2/9=110,12=2,17=6,18=5,40=1/2;
 3/5=1,6=6,7=1,11=9,25=1,30=1,71=1/1,2,3;
 4//1;
 5/5=2,32=2,38=5/2;
 6/7=2,8=2,9=2,10=2,15=8,20=1,28=1,33=2,42=6/1,2;
 7//1,2,3,16;
 1/18=20,19=15/3(2);
 2/9=110/2;
 99//99;
 2/9=110/2;
 3/5=1,6=6,7=1,11=9,25=1,30=1,71=1/1,2,3;
 4/5=5,16=3,69=1/1;
 5/5=2,32=2,38=5/2;
 7//1,2,3,16;
 1/18=20,19=15/3(-5);
 2/9=110/2;
 6/7=2,8=2,9=2,10=2,15=8,19=2,20=1,28=1,33=2,42=6/1,2;
 99/9=1/99;
 --------------
 mobley_1079207
 --------------
 Symbolic Z-matrix:
 Charge =  0 Multiplicity = 1
 C                     1.885    -1.036    -0.112 
 C                     2.921    -1.631     0.608 
 C                     2.878    -1.652     2.002 
 C                     1.8      -1.079     2.676 
 C                     0.764    -0.484     1.955 
 C                     0.807    -0.463     0.561 
 CL                   -0.567     0.223     2.785 
 CL                    4.157    -2.385     2.891 
 H                     1.919    -1.02     -1.198 
 H                     3.755    -2.074     0.07 
 H                     1.767    -1.095     3.763 
 H                     0.007    -0.003    -0.014 
 

 GradGradGradGradGradGradGradGradGradGradGradGradGradGradGradGradGradGrad
 Berny optimization.
 Initialization pass.
                           ----------------------------
                           !    Initial Parameters    !
                           ! (Angstroms and Degrees)  !
 --------------------------                            --------------------------
 ! Name  Definition              Value          Derivative Info.                !
 --------------------------------------------------------------------------------
 ! R1    R(1,2)                  1.3949         estimate D2E/DX2                !
 ! R2    R(1,6)                  1.394          estimate D2E/DX2                !
 ! R3    R(1,9)                  1.0866         estimate D2E/DX2                !
 ! R4    R(2,3)                  1.3948         estimate D2E/DX2                !
 ! R5    R(2,10)                 1.0869         estimate D2E/DX2                !
 ! R6    R(3,4)                  1.3945         estimate D2E/DX2                !
 ! R7    R(3,8)                  1.7215         estimate D2E/DX2                !
 ! R8    R(4,5)                  1.3954         estimate D2E/DX2                !
 ! R9    R(4,11)                 1.0876         estimate D2E/DX2                !
 ! R10   R(5,6)                  1.3948         estimate D2E/DX2                !
 ! R11   R(5,7)                  1.7206         estimate D2E/DX2                !
 ! R12   R(6,12)                 1.0873         estimate D2E/DX2                !
 ! A1    A(2,1,6)              120.0312         estimate D2E/DX2                !
 ! A2    A(2,1,9)              119.9274         estimate D2E/DX2                !
 ! A3    A(6,1,9)              120.0413         estimate D2E/DX2                !
 ! A4    A(1,2,3)              119.9597         estimate D2E/DX2                !
 ! A5    A(1,2,10)             119.2274         estimate D2E/DX2                !
 ! A6    A(3,2,10)             120.8128         estimate D2E/DX2                !
 ! A7    A(2,3,4)              120.045          estimate D2E/DX2                !
 ! A8    A(2,3,8)              119.975          estimate D2E/DX2                !
 ! A9    A(4,3,8)              119.98           estimate D2E/DX2                !
 ! A10   A(3,4,5)              119.9601         estimate D2E/DX2                !
 ! A11   A(3,4,11)             120.0301         estimate D2E/DX2                !
 ! A12   A(5,4,11)             120.0097         estimate D2E/DX2                !
 ! A13   A(4,5,6)              119.9949         estimate D2E/DX2                !
 ! A14   A(4,5,7)              120.0197         estimate D2E/DX2                !
 ! A15   A(6,5,7)              119.9855         estimate D2E/DX2                !
 ! A16   A(1,6,5)              120.0091         estimate D2E/DX2                !
 ! A17   A(1,6,12)             119.1799         estimate D2E/DX2                !
 ! A18   A(5,6,12)             120.811          estimate D2E/DX2                !
 ! D1    D(6,1,2,3)             -0.0199         estimate D2E/DX2                !
 ! D2    D(6,1,2,10)           179.9864         estimate D2E/DX2                !
 ! D3    D(9,1,2,3)           -179.9955         estimate D2E/DX2                !
 ! D4    D(9,1,2,10)             0.0108         estimate D2E/DX2                !
 ! D5    D(2,1,6,5)              0.02           estimate D2E/DX2                !
 ! D6    D(2,1,6,12)          -179.996          estimate D2E/DX2                !
 ! D7    D(9,1,6,5)            179.9955         estimate D2E/DX2                !
 ! D8    D(9,1,6,12)            -0.0204         estimate D2E/DX2                !
 ! D9    D(1,2,3,4)              0.0186         estimate D2E/DX2                !
 ! D10   D(1,2,3,8)           -179.9474         estimate D2E/DX2                !
 ! D11   D(10,2,3,4)          -179.9878         estimate D2E/DX2                !
 ! D12   D(10,2,3,8)             0.0462         estimate D2E/DX2                !
 ! D13   D(2,3,4,5)             -0.0173         estimate D2E/DX2                !
 ! D14   D(2,3,4,11)          -179.9644         estimate D2E/DX2                !
 ! D15   D(8,3,4,5)            179.9487         estimate D2E/DX2                !
 ! D16   D(8,3,4,11)             0.0016         estimate D2E/DX2                !
 ! D17   D(3,4,5,6)              0.0173         estimate D2E/DX2                !
 ! D18   D(3,4,5,7)            179.9815         estimate D2E/DX2                !
 ! D19   D(11,4,5,6)           179.9644         estimate D2E/DX2                !
 ! D20   D(11,4,5,7)            -0.0713         estimate D2E/DX2                !
 ! D21   D(4,5,6,1)             -0.0186         estimate D2E/DX2                !
 ! D22   D(4,5,6,12)           179.9976         estimate D2E/DX2                !
 ! D23   D(7,5,6,1)           -179.9828         estimate D2E/DX2                !
 ! D24   D(7,5,6,12)             0.0334         estimate D2E/DX2                !
 --------------------------------------------------------------------------------
 Trust Radius=3.00D-01 FncErr=1.00D-07 GrdErr=1.00D-07 EigMax=2.50D+02 EigMin=1.00D-04
 Number of steps in this run=     64 maximum allowed number of steps=    100.
 GradGradGradGradGradGradGradGradGradGradGradGradGradGradGradGradGradGrad

                          Input orientation:                          
 ---------------------------------------------------------------------
 Center     Atomic      Atomic             Coordinates (Angstroms)
 Number     Number       Type             X           Y           Z
 ---------------------------------------------------------------------
      1          6           0        1.885000   -1.036000   -0.112000
      2          6           0        2.921000   -1.631000    0.608000
      3          6           0        2.878000   -1.652000    2.002000
      4          6           0        1.800000   -1.079000    2.676000
      5          6           0        0.764000   -0.484000    1.955000
      6          6           0        0.807000   -0.463000    0.561000
      7         17           0       -0.567000    0.223000    2.785000
      8         17           0        4.157000   -2.385000    2.891000
      9          1           0        1.919000   -1.020000   -1.198000
     10          1           0        3.755000   -2.074000    0.070000
     11          1           0        1.767000   -1.095000    3.763000
     12          1           0        0.007000   -0.003000   -0.014000
 ---------------------------------------------------------------------
                    Distance matrix (angstroms):
                    1          2          3          4          5
     1  C    0.000000
     2  C    1.394891   0.000000
     3  C    2.415471   1.394821   0.000000
     4  C    2.789627   2.416189   1.394521   0.000000
     5  C    2.415333   2.789743   2.415663   1.395407   0.000000
     6  C    1.394038   2.415663   2.789129   2.416346   1.394821
     7  Cl   3.998749   4.510298   3.999592   2.703659   1.720555
     8  Cl   3.999974   2.703387   1.721468   2.703204   4.000293
     9  H    1.086650   2.153825   3.399868   3.876276   3.400401
    10  H    2.146501   1.086853   2.163293   3.406360   3.876520
    11  H    3.877245   3.401917   2.155387   1.087618   2.155967
    12  H    2.145595   3.395389   3.876351   3.407158   2.163648
                    6          7          8          9         10
     6  C    0.000000
     7  Cl   2.702711   0.000000
     8  Cl   4.510597   5.397136   0.000000
     9  H    2.154269   4.856906   4.857138   0.000000
    10  H    3.395159   5.597063   2.866420   2.467719   0.000000
    11  H    3.402033   2.853273   2.852470   4.963895   4.306836
    12  H    1.087302   2.866174   5.597808   2.468175   4.282943
                   11         12
    11  H    0.000000
    12  H    4.307644   0.000000
 Stoichiometry    C6H4Cl2
 Framework group  C1[X(C6H4Cl2)]
 Deg. of freedom    30
 Full point group                 C1      NOp   1
 Largest Abelian subgroup         C1      NOp   1
 Largest concise Abelian subgroup C1      NOp   1
                         Standard orientation:                         
 ---------------------------------------------------------------------
 Center     Atomic      Atomic             Coordinates (Angstroms)
 Number     Number       Type             X           Y           Z
 ---------------------------------------------------------------------
      1          6           0        0.000880    2.076086   -0.000167
      2          6           0       -1.207615    1.379481    0.000407
      3          6           0       -1.207605   -0.015340    0.000447
      4          6           0       -0.000458   -0.713541    0.000306
      5          6           0        1.208058   -0.015936   -0.000240
      6          6           0        1.208048    1.378885   -0.000280
      7         17           0        2.698327   -0.875825    0.000067
      8         17           0       -2.698809   -0.875434   -0.000215
      9          1           0        0.000260    3.162736   -0.000124
     10          1           0       -2.141058    1.936199    0.000714
     11          1           0       -0.000732   -1.801159   -0.000248
     12          1           0        2.141885    1.935816   -0.000663
 ---------------------------------------------------------------------
 Rotational constants (GHZ):           2.8441251           0.8586500           0.6595346
 Standard basis: 6-31G(d) (6D, 7F)
 There are   136 symmetry adapted cartesian basis functions of A   symmetry.
 There are   136 symmetry adapted basis functions of A   symmetry.
   136 basis functions,   288 primitive gaussians,   136 cartesian basis functions
    37 alpha electrons       37 beta electrons
       nuclear repulsion energy       453.2220140027 Hartrees.
 NAtoms=   12 NActive=   12 NUniq=   12 SFac= 1.00D+00 NAtFMM=   60 NAOKFM=F Big=F
 Integral buffers will be    131072 words long.
 Raffenetti 1 integral format.
 Two-electron integral symmetry is turned on.
 One-electron integrals computed using PRISM.
 NBasis=   136 RedAO= T EigKep=  4.73D-04  NBF=   136
 NBsUse=   136 1.00D-06 EigRej= -1.00D+00 NBFU=   136
 ExpMin= 1.43D-01 ExpMax= 2.52D+04 ExpMxC= 3.78D+03 IAcc=3 IRadAn=         5 AccDes= 0.00D+00
 Harris functional with IExCor=  205 and IRadAn=       5 diagonalized for initial guess.
 HarFok:  IExCor=  205 AccDes= 0.00D+00 IRadAn=         5 IDoV= 1 UseB2=F ITyADJ=14
 ICtDFT=  3500011 ScaDFX=  1.000000  1.000000  1.000000  1.000000
 FoFCou: FMM=F IPFlag=           0 FMFlag=      100000 FMFlg1=           0
         NFxFlg=           0 DoJE=T BraDBF=F KetDBF=T FulRan=T
         wScrn=  0.000000 ICntrl=       500 IOpCl=  0 I1Cent=   200000004 NGrid=           0
         NMat0=    1 NMatS0=      1 NMatT0=    0 NMatD0=    1 NMtDS0=    0 NMtDT0=    0
 Petite list used in FoFCou.
 Keep R1 ints in memory in canonical form, NReq=44685345.
 Requested convergence on RMS density matrix=1.00D-08 within 128 cycles.
 Requested convergence on MAX density matrix=1.00D-06.
 Requested convergence on             energy=1.00D-06.
 No special actions if energy rises.
 SCF Done:  E(RHF) =  -1148.49938354     A.U. after   14 cycles
            NFock= 14  Conv=0.46D-08     -V/T= 2.0007
 SCF density gives NOpUse=  1 NOpAll=  1.

 **********************************************************************

            Population analysis using the SCF Density.

 **********************************************************************

 Orbital symmetries:
 BldTbl:  Degeneracy threshold= 1.00D-02
       Occupied  (A) (A) (A) (A) (A) (A) (A) (A) (A) (A) (A) (A)
                 (A) (A) (A) (A) (A) (A) (A) (A) (A) (A) (A) (A)
                 (A) (A) (A) (A) (A) (A) (A) (A) (A) (A) (A) (A)
                 (A)
       Virtual   (A) (A) (A) (A) (A) (A) (A) (A) (A) (A) (A) (A)
                 (A) (A) (A) (A) (A) (A) (A) (A) (A) (A) (A) (A)
                 (A) (A) (A) (A) (A) (A) (A) (A) (A) (A) (A) (A)
                 (A) (A) (A) (A) (A) (A) (A) (A) (A) (A) (A) (A)
                 (A) (A) (A) (A) (A) (A) (A) (A) (A) (A) (A) (A)
                 (A) (A) (A) (A) (A) (A) (A) (A) (A) (A) (A) (A)
                 (A) (A) (A) (A) (A) (A) (A) (A) (A) (A) (A) (A)
                 (A) (A) (A) (A) (A) (A) (A) (A) (A) (A) (A) (A)
                 (A) (A) (A)
 The electronic state is 1-A.
 Alpha  occ. eigenvalues -- -104.83776-104.83765 -11.31878 -11.31872 -11.26824
 Alpha  occ. eigenvalues --  -11.26491 -11.26299 -11.26262 -10.57142 -10.57130
 Alpha  occ. eigenvalues --   -8.04088  -8.04075  -8.03742  -8.03740  -8.03730
 Alpha  occ. eigenvalues --   -8.03728  -1.21492  -1.16846  -1.11015  -1.02441
 Alpha  occ. eigenvalues --   -0.99918  -0.85054  -0.82285  -0.71339  -0.67188
 Alpha  occ. eigenvalues --   -0.64969  -0.60686  -0.59935  -0.56754  -0.53557
 Alpha  occ. eigenvalues --   -0.52794  -0.51317  -0.46759  -0.45920  -0.45847
 Alpha  occ. eigenvalues --   -0.35343  -0.34000
 Alpha virt. eigenvalues --    0.11427   0.11531   0.17393   0.23123   0.25981
 Alpha virt. eigenvalues --    0.29871   0.30111   0.32094   0.32783   0.40194
 Alpha virt. eigenvalues --    0.42783   0.44097   0.45088   0.54472   0.55477
 Alpha virt. eigenvalues --    0.59181   0.59761   0.62349   0.63236   0.64313
 Alpha virt. eigenvalues --    0.66262   0.66522   0.70385   0.73988   0.77395
 Alpha virt. eigenvalues --    0.80906   0.81099   0.81995   0.82384   0.82681
 Alpha virt. eigenvalues --    0.84287   0.88217   0.88873   0.96570   0.97937
 Alpha virt. eigenvalues --    1.01027   1.05490   1.06261   1.09119   1.10163
 Alpha virt. eigenvalues --    1.11743   1.13622   1.14256   1.14696   1.17070
 Alpha virt. eigenvalues --    1.17214   1.18512   1.20212   1.24175   1.24997
 Alpha virt. eigenvalues --    1.28109   1.35039   1.38878   1.39729   1.42292
 Alpha virt. eigenvalues --    1.46087   1.47532   1.57537   1.64125   1.66999
 Alpha virt. eigenvalues --    1.67264   1.68606   1.73290   1.74009   1.81381
 Alpha virt. eigenvalues --    1.84962   2.03320   2.07270   2.07864   2.20294
 Alpha virt. eigenvalues --    2.27288   2.29250   2.37505   2.38070   2.43238
 Alpha virt. eigenvalues --    2.43327   2.43737   2.45288   2.59106   2.59901
 Alpha virt. eigenvalues --    2.61619   2.84070   2.87798   2.95900   3.01139
 Alpha virt. eigenvalues --    3.04180   3.06303   3.06755   3.09704   3.36679
 Alpha virt. eigenvalues --    3.70569   4.46217   4.47508   4.50558   4.65828
 Alpha virt. eigenvalues --    4.68380   4.76772   4.80120   5.06724
          Condensed to atoms (all electrons):
               1          2          3          4          5          6
     1  C    4.881614   0.540794  -0.041944  -0.029650  -0.041911   0.540881
     2  C    0.540794   4.949709   0.532569  -0.050215  -0.030301  -0.045974
     3  C   -0.041944   0.532569   5.019691   0.522388  -0.038280  -0.030321
     4  C   -0.029650  -0.050215   0.522388   5.004636   0.522278  -0.050201
     5  C   -0.041911  -0.030301  -0.038280   0.522278   5.020204   0.532570
     6  C    0.540881  -0.045974  -0.030321  -0.050201   0.532570   4.949546
     7  Cl   0.002745   0.000147   0.002628  -0.067046   0.213424  -0.067202
     8  Cl   0.002739  -0.067089   0.213601  -0.067097   0.002629   0.000146
     9  H    0.383411  -0.027928   0.002169   0.000176   0.002161  -0.027850
    10  H   -0.026675   0.381511  -0.029249   0.002197   0.000153   0.002521
    11  H    0.000135   0.002055  -0.026839   0.380493  -0.026841   0.002057
    12  H   -0.026726   0.002526   0.000152   0.002195  -0.029263   0.381481
               7          8          9         10         11         12
     1  C    0.002745   0.002739   0.383411  -0.026675   0.000135  -0.026726
     2  C    0.000147  -0.067089  -0.027928   0.381511   0.002055   0.002526
     3  C    0.002628   0.213601   0.002169  -0.029249  -0.026839   0.000152
     4  C   -0.067046  -0.067097   0.000176   0.002197   0.380493   0.002195
     5  C    0.213424   0.002629   0.002161   0.000153  -0.026841  -0.029263
     6  C   -0.067202   0.000146  -0.027850   0.002521   0.002057   0.381481
     7  Cl  16.892254  -0.000110  -0.000089   0.000006   0.000202   0.000326
     8  Cl  -0.000110  16.892515  -0.000089   0.000331   0.000179   0.000006
     9  H   -0.000089  -0.000089   0.446581  -0.001571   0.000007  -0.001579
    10  H    0.000006   0.000331  -0.001571   0.438550  -0.000086  -0.000090
    11  H    0.000202   0.000179   0.000007  -0.000086   0.418596  -0.000086
    12  H    0.000326   0.000006  -0.001579  -0.000090  -0.000086   0.438739
 Mulliken charges:
               1
     1  C   -0.185413
     2  C   -0.187805
     3  C   -0.126563
     4  C   -0.170154
     5  C   -0.126823
     6  C   -0.187653
     7  Cl   0.022716
     8  Cl   0.022241
     9  H    0.224601
    10  H    0.232404
    11  H    0.250129
    12  H    0.232320
 Sum of Mulliken charges =  -0.00000
 Mulliken charges with hydrogens summed into heavy atoms:
               1
     1  C    0.039188
     2  C    0.044599
     3  C   -0.126563
     4  C    0.079975
     5  C   -0.126823
     6  C    0.044667
     7  Cl   0.022716
     8  Cl   0.022241
 DipInt: DoE/N= T F RetVal/Mat= T F Init=T NMatP=  1 IDeriv=0 Min/MaxMlt=  0  4
 Entering OneElI...
 OneElI was handed   134167992 working-precision words.
 Multipole integrals L=0 to 4 MinM= 0 MaxM= 0.
 Requested accuracy = 0.1000D-12
 ShPair: Thresh= 1.00D-13 NBox=     0 BxSize= 0.00D+00 RnKept= 1.06D+01
         NSMCal=                  903 NSMKep=                 854
 PrmmSu-InSpLW:  IPartL=    0 NPrtUS=    1 NPrtUL=    1 DoSpLW=F IThBeg=    0 IThEnd=    0 NThAct=    1.
 PrSmSu:  IncTry=   512 NBBP=            854 NTPThr=   100 NPartT=    1 Incr=           8 LDynOK=F GPUOK=F.
 PrsmSu:  NPrtUS=   1 ThrOK=F IAlg=2 LenDen=           0 ISkipM=0 DoSpLW=F IThBeg=    0 IThEnd=    0.
 Prism:   IPart=     0 DynPar=F LinDyn=F Incr=           8.
 PRISM was handed   134072277 working-precision words and   854 shell-pairs
 IPart=  0 NShTot=         854 NBatch=          42 AvBLen=        20.3
 PrsmSu-ThDecC:  IPartSL=    0    0 NPrtUSL=    1    1 IThBeg=    0 IThEnd=    0 CPU=   -1 GPU=   -1 NThAct=    1.
 PrSmSu:  NxtVal=              9.
 Electronic moments (au):
        -74.00000000          0.00175954          0.75528206         -0.00010845
      -1088.82220767       -391.54120399        -47.06130382         -0.00514874
         -0.00105989          0.00053893          1.04951270       -669.13066256
         -0.00261569         -0.27212203       1190.64470033          0.10056878
          0.00534395         -6.92447340          0.03477253          0.15191987
     -27827.14868111      -5271.31716612       -183.18560845         -0.75533572
         -0.79684573         -0.14942451          0.11221257          0.01379303
          0.00491647      -4074.27243065       -670.60655354       -286.63155949
         -0.21949296          0.12866670         -0.01834412
 Electronic spatial extent (au):  <R**2>=           1527.4247
 DipInt: DoE/N= F T RetVal/Mat= T F Init=T NMatP=  1 IDeriv=0 Min/MaxMlt=  0  4
 Nuclear    moments (au):
         74.00000000          0.00000000         -0.00000000          0.00000000
       1041.97073203        351.95114652          0.00002006         -0.00000000
         -0.00000000         -0.00000000         -0.97532953        678.00400372
          0.00000001          0.26849626      -1182.14668015         -0.10233413
         -0.00002510          0.00002002         -0.03851627         -0.16058115
      24181.40498391       4018.36244107          0.00000000          0.60531690
          0.84090175          0.05093529         -0.10256991         -0.00000003
          0.00000001       3284.02799716          0.00019117          0.00010660
          0.22936982         -0.13559896          0.00000666
 Total      moments (au):
         -0.00000000          0.00175954          0.75528206         -0.00010845
        -46.85147564        -39.59005747        -47.06128375         -0.00514874
         -0.00105989          0.00053893          0.07418318          8.87334116
         -0.00261568         -0.00362578          8.49802019         -0.00176534
          0.00531884         -6.92445338         -0.00374374         -0.00866127
      -3645.74369720      -1252.95472505       -183.18560845         -0.15001882
          0.04405602         -0.09848922          0.00964266          0.01379300
          0.00491648       -790.24443349       -670.60636237       -286.63145289
          0.00987687         -0.00693225         -0.01833745
 Traceless Quadrup. (au):
         -2.35053668          4.91088148         -2.56034480         -0.00514874
         -0.00105989          0.00053893
 Charge=             -0.0000 electrons
 Dipole moment (field-independent basis, Debye):
    X=              0.0045    Y=              1.9197    Z=             -0.0003  Tot=              1.9197
 Quadrupole moment (field-independent basis, Debye-Ang):
   XX=            -63.0168   YY=            -53.2500   ZZ=            -63.2990
   XY=             -0.0069   XZ=             -0.0014   YZ=              0.0007
 Traceless Quadrupole moment (field-independent basis, Debye-Ang):
   XX=             -3.1616   YY=              6.6053   ZZ=             -3.4438
   XY=             -0.0069   XZ=             -0.0014   YZ=              0.0007
 Octapole moment (field-independent basis, Debye-Ang**2):
  XXX=              0.0528  YYY=              6.3157  ZZZ=             -0.0019  XYY=             -0.0026
  XXY=              6.0486  XXZ=             -0.0013  XZZ=              0.0038  YZZ=             -4.9286
  YYZ=             -0.0027  XYZ=             -0.0062
 Hexadecapole moment (field-independent basis, Debye-Ang**3):
 XXXX=          -1373.1619 YYYY=           -471.9228 ZZZZ=            -68.9965 XXXY=             -0.0565
 XXXZ=              0.0166 YYYX=             -0.0371 YYYZ=              0.0036 ZZZX=              0.0052
 ZZZY=              0.0019 XXYY=           -297.6439 XXZZ=           -252.5825 YYZZ=           -107.9591
 XXYZ=              0.0037 YYXZ=             -0.0026 ZZXY=             -0.0069
 N-N= 4.532220140027D+02 E-N=-3.628305618596D+03  KE= 1.147662904548D+03
 Entering OneElI...
 OneElI was handed   134176860 working-precision words.
 Calculate electrostatic properties
    NBasis =   136  MinDer = 0  MaxDer = 0
    NGrid  =    12  NMatD  =   1
 Requested accuracy = 0.1000D-12
 ShPair: Thresh= 1.00D-13 NBox=     0 BxSize= 0.00D+00 RnKept= 1.06D+01
         NSMCal=                  903 NSMKep=                 818
 PrmmSu-InSpLW:  IPartL=    0 NPrtUS=    1 NPrtUL=    1 DoSpLW=F IThBeg=    0 IThEnd=    0 NThAct=    1.
 PrSmSu:  IncTry=   512 NBBP=           9816 NTPThr=   100 NPartT=    1 Incr=          98 LDynOK=F GPUOK=F.
 PrsmSu:  NPrtUS=   1 ThrOK=F IAlg=2 LenDen=           0 ISkipM=0 DoSpLW=F IThBeg=    0 IThEnd=    0.
 Prism:   IPart=     0 DynPar=F LinDyn=F Incr=          98.
 PRISM was handed   134086048 working-precision words and   818 shell-pairs
 IPart=  0 NShTot=        9816 NBatch=         818 AvBLen=        12.0
 PrsmSu-ThDecC:  IPartSL=    0    0 NPrtUSL=    1    1 IThBeg=    0 IThEnd=    0 CPU=   -1 GPU=   -1 NThAct=    1.
 PrSmSu:  NxtVal=             99.
 --------------------------------------------------------
       Center         ----      EFG at Nuclei      ----
                      3XX-RR        3YY-RR        3ZZ-RR
 --------------------------------------------------------
     1   Atom        0.191681      0.151299     -0.342980
     2   Atom        0.175200      0.122505     -0.297705
     3   Atom       -0.092676      0.219381     -0.126705
     4   Atom        0.120544      0.145193     -0.265736
     5   Atom       -0.092056      0.219191     -0.127135
     6   Atom        0.174995      0.122435     -0.297430
     7   Atom       -2.297881      0.538022      1.759859
     8   Atom       -2.298349      0.537699      1.760650
     9   Atom        0.141415     -0.305684      0.164269
    10   Atom       -0.187607      0.022843      0.164765
    11   Atom        0.136104     -0.299950      0.163846
    12   Atom       -0.187184      0.022812      0.164372
 --------------------------------------------------------
                        XY            XZ            YZ
 --------------------------------------------------------
     1   Atom       -0.000378     -0.000181     -0.000022
     2   Atom        0.020728     -0.000103      0.000058
     3   Atom       -0.258807     -0.000131      0.000053
     4   Atom       -0.000344      0.000041      0.000074
     5   Atom        0.257991     -0.000012     -0.000055
     6   Atom       -0.021179     -0.000133     -0.000102
     7   Atom        2.411659     -0.001354      0.000665
     8   Atom       -2.411689     -0.002426     -0.001450
     9   Atom        0.000192      0.000007     -0.000009
    10   Atom        0.194988      0.000112     -0.000059
    11   Atom       -0.000100      0.000007     -0.000210
    12   Atom       -0.194429      0.000136      0.000080
 --------------------------------------------------------


 ---------------------------------------------------------------------------------
              Nuclear Quadrupole Coupling Constant in Principal Axis System
 ---------------------------------------------------------------------------------

       Atom             a.u.   MegaHertz   Gauss  10(-4) cm-1        Axes

              Baa    -3.6776   -70.553   -25.175   -23.534  0.8680 -0.4966  0.0003
     7 Cl(35) Bbb     1.7599    33.763    12.047    11.262  0.0001  0.0007  1.0000
              Bcc     1.9177    36.791    13.128    12.272  0.4966  0.8680 -0.0006
 
              Baa    -3.6780   -70.562   -25.178   -23.537  0.8680  0.4966  0.0005
     8 Cl(35) Bbb     1.7607    33.778    12.053    11.267 -0.0006  0.0000  1.0000
              Bcc     1.9174    36.784    13.126    12.270 -0.4966  0.8680 -0.0003
 

 ---------------------------------------------------------------------------------

 No NMR shielding tensors so no spin-rotation constants.
 Leave Link  601 at Thu Nov  2 13:04:41 2023, MaxMem=   134217728 cpu:               0.1 elap:               0.1
 FitSet:  NAtFit=    12 NAtPot=    12 NAtFrz=     0 MDM=    16 TotChg=   0.00000
 Merz-Kollman atomic radii used.
 Atom Element Radius
    1     6    1.50
    2     6    1.50
    3     6    1.50
    4     6    1.50
    5     6    1.50
    6     6    1.50
    7    17    1.70
    8    17    1.70
    9     1    1.20
   10     1    1.20
   11     1    1.20
   12     1    1.20
 Generate VDW surfaces: Layer= 4 Dens= 6 Start= 1.400 Inc= 0.200

 **********************************************************************

            Electrostatic Properties Using The SCF Density.

 **********************************************************************

       Atomic Center    1 is at   0.000880  2.076086 -0.000167
       Atomic Center    2 is at  -1.207615  1.379481  0.000407
       Atomic Center    3 is at  -1.207605 -0.015340  0.000447
       Atomic Center    4 is at  -0.000458 -0.713541  0.000306
       Atomic Center    5 is at   1.208058 -0.015936 -0.000240
       Atomic Center    6 is at   1.208048  1.378885 -0.000280
       Atomic Center    7 is at   2.698327 -0.875825  0.000067
       Atomic Center    8 is at  -2.698809 -0.875434 -0.000215
       Atomic Center    9 is at   0.000260  3.162736 -0.000124
       Atomic Center   10 is at  -2.141058  1.936199  0.000714
       Atomic Center   11 is at  -0.000732 -1.801159 -0.000248
       Atomic Center   12 is at   2.141885  1.935816 -0.000663
      ESP Fit Center   13 is at   0.000880  2.076086  2.099833
      ESP Fit Center   14 is at   0.410570  2.076086  2.059482
      ESP Fit Center   15 is at   0.205725  2.430888  2.059482
      ESP Fit Center   16 is at  -0.203964  2.430888  2.059482
      ESP Fit Center   17 is at  -0.408809  2.076086  2.059482
      ESP Fit Center   18 is at  -0.203964  1.721284  2.059482
      ESP Fit Center   19 is at   0.205725  1.721284  2.059482
      ESP Fit Center   20 is at   0.804516  2.076086  1.939980
      ESP Fit Center   21 is at   0.696849  2.477904  1.939980
      ESP Fit Center   22 is at   0.402698  2.772054  1.939980
      ESP Fit Center   23 is at   0.000880  2.879721  1.939980
      ESP Fit Center   24 is at  -0.400937  2.772054  1.939980
      ESP Fit Center   25 is at  -0.695088  2.477904  1.939980
      ESP Fit Center   26 is at  -0.802755  2.076086  1.939980
      ESP Fit Center   27 is at  -0.400937  1.380117  1.939980
      ESP Fit Center   28 is at   0.000880  1.272451  1.939980
      ESP Fit Center   29 is at   0.402698  1.380117  1.939980
      ESP Fit Center   30 is at   0.863080  2.862085  1.745919
      ESP Fit Center   31 is at   0.520922  3.120471  1.745919
      ESP Fit Center   32 is at   0.108530  3.237807  1.745919
      ESP Fit Center   33 is at  -0.318401  3.198246  1.745919
      ESP Fit Center   34 is at  -0.702212  3.007131  1.745919
      ESP Fit Center   35 is at  -0.991066  2.690273  1.745919
      ESP Fit Center   36 is at   0.108530  0.914365  1.745919
      ESP Fit Center   37 is at   1.250078  2.878897  1.484757
      ESP Fit Center   38 is at   0.973299  3.198317  1.484757
      ESP Fit Center   39 is at  -0.971538  3.198317  1.484757
      ESP Fit Center   40 is at  -1.248317  2.878897  1.484757
      ESP Fit Center   41 is at   1.307845  3.233955  1.166531
      ESP Fit Center   42 is at  -1.306084  3.233955  1.166531
      ESP Fit Center   43 is at   1.307845  3.233955 -1.166864
      ESP Fit Center   44 is at  -1.306084  3.233955 -1.166864
      ESP Fit Center   45 is at   1.250078  2.878897 -1.485091
      ESP Fit Center   46 is at   0.973299  3.198317 -1.485091
      ESP Fit Center   47 is at  -0.971538  3.198317 -1.485091
      ESP Fit Center   48 is at  -1.248317  2.878897 -1.485091
      ESP Fit Center   49 is at   0.863080  2.862085 -1.746253
      ESP Fit Center   50 is at   0.520922  3.120471 -1.746253
      ESP Fit Center   51 is at   0.108530  3.237807 -1.746253
      ESP Fit Center   52 is at  -0.318401  3.198246 -1.746253
      ESP Fit Center   53 is at  -0.702212  3.007131 -1.746253
      ESP Fit Center   54 is at  -0.991066  2.690273 -1.746253
      ESP Fit Center   55 is at   0.108530  0.914365 -1.746253
      ESP Fit Center   56 is at   0.804516  2.076086 -1.940314
      ESP Fit Center   57 is at   0.696849  2.477904 -1.940314
      ESP Fit Center   58 is at   0.402698  2.772054 -1.940314
      ESP Fit Center   59 is at   0.000880  2.879721 -1.940314
      ESP Fit Center   60 is at  -0.400937  2.772054 -1.940314
      ESP Fit Center   61 is at  -0.695088  2.477904 -1.940314
      ESP Fit Center   62 is at  -0.802755  2.076086 -1.940314
      ESP Fit Center   63 is at  -0.400937  1.380117 -1.940314
      ESP Fit Center   64 is at   0.000880  1.272451 -1.940314
      ESP Fit Center   65 is at   0.402698  1.380117 -1.940314
      ESP Fit Center   66 is at   0.410570  2.076086 -2.059816
      ESP Fit Center   67 is at   0.205725  2.430888 -2.059816
      ESP Fit Center   68 is at  -0.203964  2.430888 -2.059816
      ESP Fit Center   69 is at  -0.408809  2.076086 -2.059816
      ESP Fit Center   70 is at  -0.203964  1.721284 -2.059816
      ESP Fit Center   71 is at   0.205725  1.721284 -2.059816
      ESP Fit Center   72 is at   0.000880  2.076086 -2.100167
      ESP Fit Center   73 is at  -1.207615  1.379481  2.100407
      ESP Fit Center   74 is at  -0.797926  1.379481  2.060056
      ESP Fit Center   75 is at  -1.002771  1.734283  2.060056
      ESP Fit Center   76 is at  -1.412460  1.734283  2.060056
      ESP Fit Center   77 is at  -1.617305  1.379481  2.060056
      ESP Fit Center   78 is at  -1.412460  1.024679  2.060056
      ESP Fit Center   79 is at  -1.002771  1.024679  2.060056
      ESP Fit Center   80 is at  -0.403980  1.379481  1.940554
      ESP Fit Center   81 is at  -0.805798  2.075450  1.940554
      ESP Fit Center   82 is at  -1.207615  2.183116  1.940554
      ESP Fit Center   83 is at  -1.609433  2.075450  1.940554
      ESP Fit Center   84 is at  -1.903584  1.781299  1.940554
      ESP Fit Center   85 is at  -2.011251  1.379481  1.940554
      ESP Fit Center   86 is at  -1.903584  0.977663  1.940554
      ESP Fit Center   87 is at  -1.609433  0.683513  1.940554
      ESP Fit Center   88 is at  -0.805798  0.683513  1.940554
      ESP Fit Center   89 is at  -0.511647  0.977663  1.940554
      ESP Fit Center   90 is at  -1.099966  2.541202  1.746493
      ESP Fit Center   91 is at  -1.526897  2.501641  1.746493
      ESP Fit Center   92 is at  -1.910708  2.310526  1.746493
      ESP Fit Center   93 is at  -2.199562  1.993668  1.746493
      ESP Fit Center   94 is at  -2.354448  1.593861  1.746493
      ESP Fit Center   95 is at  -2.354448  1.165101  1.746493
      ESP Fit Center   96 is at  -2.199562  0.765294  1.746493
      ESP Fit Center   97 is at  -1.418942  2.849291  1.485331
      ESP Fit Center   98 is at  -1.824475  2.730216  1.485331
      ESP Fit Center   99 is at  -1.418083  3.112836  1.167104
      ESP Fit Center  100 is at  -1.521496  3.294070  0.804042
      ESP Fit Center  101 is at  -1.521496  3.294070 -0.803228
      ESP Fit Center  102 is at  -1.418083  3.112836 -1.166291
      ESP Fit Center  103 is at  -1.418942  2.849291 -1.484517
      ESP Fit Center  104 is at  -1.824475  2.730216 -1.484517
      ESP Fit Center  105 is at  -1.099966  2.541202 -1.745679
      ESP Fit Center  106 is at  -1.526897  2.501641 -1.745679
      ESP Fit Center  107 is at  -1.910708  2.310526 -1.745679
      ESP Fit Center  108 is at  -2.199562  1.993668 -1.745679
      ESP Fit Center  109 is at  -2.354448  1.593861 -1.745679
      ESP Fit Center  110 is at  -2.354448  1.165101 -1.745679
      ESP Fit Center  111 is at  -2.199562  0.765294 -1.745679
      ESP Fit Center  112 is at  -0.403980  1.379481 -1.939740
      ESP Fit Center  113 is at  -0.805798  2.075450 -1.939740
      ESP Fit Center  114 is at  -1.207615  2.183116 -1.939740
      ESP Fit Center  115 is at  -1.609433  2.075450 -1.939740
      ESP Fit Center  116 is at  -1.903584  1.781299 -1.939740
      ESP Fit Center  117 is at  -2.011251  1.379481 -1.939740
      ESP Fit Center  118 is at  -1.903584  0.977663 -1.939740
      ESP Fit Center  119 is at  -1.609433  0.683513 -1.939740
      ESP Fit Center  120 is at  -0.805798  0.683513 -1.939740
      ESP Fit Center  121 is at  -0.511647  0.977663 -1.939740
      ESP Fit Center  122 is at  -0.797926  1.379481 -2.059242
      ESP Fit Center  123 is at  -1.002771  1.734283 -2.059242
      ESP Fit Center  124 is at  -1.412460  1.734283 -2.059242
      ESP Fit Center  125 is at  -1.617305  1.379481 -2.059242
      ESP Fit Center  126 is at  -1.412460  1.024679 -2.059242
      ESP Fit Center  127 is at  -1.002771  1.024679 -2.059242
      ESP Fit Center  128 is at  -1.207615  1.379481 -2.099593
      ESP Fit Center  129 is at  -1.207605 -0.015340  2.100447
      ESP Fit Center  130 is at  -0.797916 -0.015340  2.060096
      ESP Fit Center  131 is at  -1.002760  0.339462  2.060096
      ESP Fit Center  132 is at  -1.412450  0.339462  2.060096
      ESP Fit Center  133 is at  -1.617295 -0.015340  2.060096
      ESP Fit Center  134 is at  -1.412450 -0.370142  2.060096
      ESP Fit Center  135 is at  -1.002760 -0.370142  2.060096
      ESP Fit Center  136 is at  -0.403970 -0.015340  1.940594
      ESP Fit Center  137 is at  -0.511637  0.386477  1.940594
      ESP Fit Center  138 is at  -0.805788  0.680628  1.940594
      ESP Fit Center  139 is at  -1.609423  0.680628  1.940594
      ESP Fit Center  140 is at  -1.903574  0.386477  1.940594
      ESP Fit Center  141 is at  -1.207605 -0.818975  1.940594
      ESP Fit Center  142 is at  -0.805788 -0.711309  1.940594
      ESP Fit Center  143 is at  -1.099956 -1.177061  1.746533
      ESP Fit Center  144 is at  -1.099956 -1.177061 -1.745639
      ESP Fit Center  145 is at  -0.403970 -0.015340 -1.939700
      ESP Fit Center  146 is at  -0.511637  0.386477 -1.939700
      ESP Fit Center  147 is at  -0.805788  0.680628 -1.939700
      ESP Fit Center  148 is at  -1.609423  0.680628 -1.939700
      ESP Fit Center  149 is at  -1.903574  0.386477 -1.939700
      ESP Fit Center  150 is at  -1.207605 -0.818975 -1.939700
      ESP Fit Center  151 is at  -0.805788 -0.711309 -1.939700
      ESP Fit Center  152 is at  -0.797916 -0.015340 -2.059202
      ESP Fit Center  153 is at  -1.002760  0.339462 -2.059202
      ESP Fit Center  154 is at  -1.412450  0.339462 -2.059202
      ESP Fit Center  155 is at  -1.617295 -0.015340 -2.059202
      ESP Fit Center  156 is at  -1.412450 -0.370142 -2.059202
      ESP Fit Center  157 is at  -1.002760 -0.370142 -2.059202
      ESP Fit Center  158 is at  -1.207605 -0.015340 -2.099553
      ESP Fit Center  159 is at  -0.000458 -0.713541  2.100306
      ESP Fit Center  160 is at   0.409232 -0.713541  2.059955
      ESP Fit Center  161 is at   0.204387 -0.358739  2.059955
      ESP Fit Center  162 is at  -0.205303 -0.358739  2.059955
      ESP Fit Center  163 is at  -0.410147 -0.713541  2.059955
      ESP Fit Center  164 is at  -0.205303 -1.068342  2.059955
      ESP Fit Center  165 is at   0.204387 -1.068342  2.059955
      ESP Fit Center  166 is at   0.803177 -0.713541  1.940453
      ESP Fit Center  167 is at   0.401360 -0.017572  1.940453
      ESP Fit Center  168 is at  -0.000458  0.090095  1.940453
      ESP Fit Center  169 is at  -0.402275 -0.017572  1.940453
      ESP Fit Center  170 is at  -0.804093 -0.713541  1.940453
      ESP Fit Center  171 is at  -0.696426 -1.115358  1.940453
      ESP Fit Center  172 is at  -0.402275 -1.409509  1.940453
      ESP Fit Center  173 is at  -0.000458 -1.517176  1.940453
      ESP Fit Center  174 is at   0.401360 -1.409509  1.940453
      ESP Fit Center  175 is at   0.695511 -1.115358  1.940453
      ESP Fit Center  176 is at   0.107192  0.448180  1.746392
      ESP Fit Center  177 is at  -0.992404 -1.327728  1.746392
      ESP Fit Center  178 is at  -0.703550 -1.644585  1.746392
      ESP Fit Center  179 is at  -0.319740 -1.835700  1.746392
      ESP Fit Center  180 is at   0.107192 -1.875261  1.746392
      ESP Fit Center  181 is at   0.519584 -1.757925  1.746392
      ESP Fit Center  182 is at   0.861742 -1.499540  1.746392
      ESP Fit Center  183 is at  -0.972876 -1.835771  1.485230
      ESP Fit Center  184 is at   0.971961 -1.835771  1.485230
      ESP Fit Center  185 is at  -0.972876 -1.835771 -1.484619
      ESP Fit Center  186 is at   0.971961 -1.835771 -1.484619
      ESP Fit Center  187 is at   0.107192  0.448180 -1.745781
      ESP Fit Center  188 is at  -0.992404 -1.327728 -1.745781
      ESP Fit Center  189 is at  -0.703550 -1.644585 -1.745781
      ESP Fit Center  190 is at  -0.319740 -1.835700 -1.745781
      ESP Fit Center  191 is at   0.107192 -1.875261 -1.745781
      ESP Fit Center  192 is at   0.519584 -1.757925 -1.745781
      ESP Fit Center  193 is at   0.861742 -1.499540 -1.745781
      ESP Fit Center  194 is at   0.803177 -0.713541 -1.939841
      ESP Fit Center  195 is at   0.401360 -0.017572 -1.939841
      ESP Fit Center  196 is at  -0.000458  0.090095 -1.939841
      ESP Fit Center  197 is at  -0.402275 -0.017572 -1.939841
      ESP Fit Center  198 is at  -0.804093 -0.713541 -1.939841
      ESP Fit Center  199 is at  -0.696426 -1.115358 -1.939841
      ESP Fit Center  200 is at  -0.402275 -1.409509 -1.939841
      ESP Fit Center  201 is at  -0.000458 -1.517176 -1.939841
      ESP Fit Center  202 is at   0.401360 -1.409509 -1.939841
      ESP Fit Center  203 is at   0.695511 -1.115358 -1.939841
      ESP Fit Center  204 is at   0.409232 -0.713541 -2.059343
      ESP Fit Center  205 is at   0.204387 -0.358739 -2.059343
      ESP Fit Center  206 is at  -0.205303 -0.358739 -2.059343
      ESP Fit Center  207 is at  -0.410147 -0.713541 -2.059343
      ESP Fit Center  208 is at  -0.205303 -1.068342 -2.059343
      ESP Fit Center  209 is at   0.204387 -1.068342 -2.059343
      ESP Fit Center  210 is at  -0.000458 -0.713541 -2.099694
      ESP Fit Center  211 is at   1.208058 -0.015936  2.099760
      ESP Fit Center  212 is at   1.617748 -0.015936  2.059409
      ESP Fit Center  213 is at   1.412903  0.338865  2.059409
      ESP Fit Center  214 is at   1.003213  0.338865  2.059409
      ESP Fit Center  215 is at   0.798368 -0.015936  2.059409
      ESP Fit Center  216 is at   1.003213 -0.370738  2.059409
      ESP Fit Center  217 is at   1.412903 -0.370738  2.059409
      ESP Fit Center  218 is at   1.904026  0.385881  1.939907
      ESP Fit Center  219 is at   1.609875  0.680032  1.939907
      ESP Fit Center  220 is at   0.806240  0.680032  1.939907
      ESP Fit Center  221 is at   0.512089  0.385881  1.939907
      ESP Fit Center  222 is at   0.404423 -0.015936  1.939907
      ESP Fit Center  223 is at   0.806240 -0.711905  1.939907
      ESP Fit Center  224 is at   1.208058 -0.819571  1.939907
      ESP Fit Center  225 is at   0.216112  0.598251  1.745846
      ESP Fit Center  226 is at   0.216112  0.598251 -1.746326
      ESP Fit Center  227 is at   1.904026  0.385881 -1.940387
      ESP Fit Center  228 is at   1.609875  0.680032 -1.940387
      ESP Fit Center  229 is at   0.806240  0.680032 -1.940387
      ESP Fit Center  230 is at   0.512089  0.385881 -1.940387
      ESP Fit Center  231 is at   0.404423 -0.015936 -1.940387
      ESP Fit Center  232 is at   0.806240 -0.711905 -1.940387
      ESP Fit Center  233 is at   1.208058 -0.819571 -1.940387
      ESP Fit Center  234 is at   1.617748 -0.015936 -2.059889
      ESP Fit Center  235 is at   1.412903  0.338865 -2.059889
      ESP Fit Center  236 is at   1.003213  0.338865 -2.059889
      ESP Fit Center  237 is at   0.798368 -0.015936 -2.059889
      ESP Fit Center  238 is at   1.003213 -0.370738 -2.059889
      ESP Fit Center  239 is at   1.412903 -0.370738 -2.059889
      ESP Fit Center  240 is at   1.208058 -0.015936 -2.100240
      ESP Fit Center  241 is at   1.208048  1.378885  2.099720
      ESP Fit Center  242 is at   1.617737  1.378885  2.059369
      ESP Fit Center  243 is at   1.412892  1.733687  2.059369
      ESP Fit Center  244 is at   1.003203  1.733687  2.059369
      ESP Fit Center  245 is at   0.798358  1.378885  2.059369
      ESP Fit Center  246 is at   1.003203  1.024083  2.059369
      ESP Fit Center  247 is at   1.412892  1.024083  2.059369
      ESP Fit Center  248 is at   2.011683  1.378885  1.939867
      ESP Fit Center  249 is at   1.904016  1.780703  1.939867
      ESP Fit Center  250 is at   1.609865  2.074853  1.939867
      ESP Fit Center  251 is at   1.208048  2.182520  1.939867
      ESP Fit Center  252 is at   0.806230  2.074853  1.939867
      ESP Fit Center  253 is at   0.404412  1.378885  1.939867
      ESP Fit Center  254 is at   0.512079  0.977067  1.939867
      ESP Fit Center  255 is at   0.806230  0.682916  1.939867
      ESP Fit Center  256 is at   1.609865  0.682916  1.939867
      ESP Fit Center  257 is at   1.904016  0.977067  1.939867
      ESP Fit Center  258 is at   2.374745  1.378885  1.745806
      ESP Fit Center  259 is at   2.295961  1.800345  1.745806
      ESP Fit Center  260 is at   2.070248  2.164884  1.745806
      ESP Fit Center  261 is at   1.728089  2.423270  1.745806
      ESP Fit Center  262 is at   1.315697  2.540605  1.745806
      ESP Fit Center  263 is at   0.216101  0.764698  1.745806
      ESP Fit Center  264 is at   2.295961  0.957425  1.745806
      ESP Fit Center  265 is at   1.824907  2.729620  1.484644
      ESP Fit Center  266 is at   1.419374  2.848695  1.484644
      ESP Fit Center  267 is at   1.418515  3.112240  1.166418
      ESP Fit Center  268 is at   1.418515  3.112240 -1.166977
      ESP Fit Center  269 is at   1.824907  2.729620 -1.485204
      ESP Fit Center  270 is at   1.419374  2.848695 -1.485204
      ESP Fit Center  271 is at   2.374745  1.378885 -1.746366
      ESP Fit Center  272 is at   2.295961  1.800345 -1.746366
      ESP Fit Center  273 is at   2.070248  2.164884 -1.746366
      ESP Fit Center  274 is at   1.728089  2.423270 -1.746366
      ESP Fit Center  275 is at   1.315697  2.540605 -1.746366
      ESP Fit Center  276 is at   0.216101  0.764698 -1.746366
      ESP Fit Center  277 is at   2.295961  0.957425 -1.746366
      ESP Fit Center  278 is at   2.011683  1.378885 -1.940427
      ESP Fit Center  279 is at   1.904016  1.780703 -1.940427
      ESP Fit Center  280 is at   1.609865  2.074853 -1.940427
      ESP Fit Center  281 is at   1.208048  2.182520 -1.940427
      ESP Fit Center  282 is at   0.806230  2.074853 -1.940427
      ESP Fit Center  283 is at   0.404412  1.378885 -1.940427
      ESP Fit Center  284 is at   0.512079  0.977067 -1.940427
      ESP Fit Center  285 is at   0.806230  0.682916 -1.940427
      ESP Fit Center  286 is at   1.609865  0.682916 -1.940427
      ESP Fit Center  287 is at   1.904016  0.977067 -1.940427
      ESP Fit Center  288 is at   1.617737  1.378885 -2.059929
      ESP Fit Center  289 is at   1.412892  1.733687 -2.059929
      ESP Fit Center  290 is at   1.003203  1.733687 -2.059929
      ESP Fit Center  291 is at   0.798358  1.378885 -2.059929
      ESP Fit Center  292 is at   1.003203  1.024083 -2.059929
      ESP Fit Center  293 is at   1.412892  1.024083 -2.059929
      ESP Fit Center  294 is at   1.208048  1.378885 -2.100280
      ESP Fit Center  295 is at   2.698327 -0.875825  2.380067
      ESP Fit Center  296 is at   3.111609 -0.875825  2.343909
      ESP Fit Center  297 is at   2.904968 -0.517912  2.343909
      ESP Fit Center  298 is at   2.491685 -0.517912  2.343909
      ESP Fit Center  299 is at   2.285044 -0.875825  2.343909
      ESP Fit Center  300 is at   2.491685 -1.233738  2.343909
      ESP Fit Center  301 is at   2.904968 -1.233738  2.343909
      ESP Fit Center  302 is at   3.512335 -0.875825  2.236535
      ESP Fit Center  303 is at   3.403278 -0.468821  2.236535
      ESP Fit Center  304 is at   3.105331 -0.170873  2.236535
      ESP Fit Center  305 is at   2.698327 -0.061817  2.236535
      ESP Fit Center  306 is at   2.291323 -0.170873  2.236535
      ESP Fit Center  307 is at   1.993375 -0.468821  2.236535
      ESP Fit Center  308 is at   1.884319 -0.875825  2.236535
      ESP Fit Center  309 is at   1.993375 -1.282829  2.236535
      ESP Fit Center  310 is at   2.291323 -1.580776  2.236535
      ESP Fit Center  311 is at   2.698327 -1.689833  2.236535
      ESP Fit Center  312 is at   3.105331 -1.580776  2.236535
      ESP Fit Center  313 is at   3.403278 -1.282829  2.236535
      ESP Fit Center  314 is at   3.888327 -0.875825  2.061207
      ESP Fit Center  315 is at   3.816561 -0.468821  2.061207
      ESP Fit Center  316 is at   3.609920 -0.110908  2.061207
      ESP Fit Center  317 is at   3.293327  0.154745  2.061207
      ESP Fit Center  318 is at   2.904968  0.296096  2.061207
      ESP Fit Center  319 is at   2.491685  0.296096  2.061207
      ESP Fit Center  320 is at   2.103327  0.154745  2.061207
      ESP Fit Center  321 is at   1.786734 -0.110908  2.061207
      ESP Fit Center  322 is at   1.580093 -0.468821  2.061207
      ESP Fit Center  323 is at   1.508327 -0.875825  2.061207
      ESP Fit Center  324 is at   1.580093 -1.282829  2.061207
      ESP Fit Center  325 is at   1.786734 -1.640742  2.061207
      ESP Fit Center  326 is at   2.103327 -1.906395  2.061207
      ESP Fit Center  327 is at   2.491685 -2.047746  2.061207
      ESP Fit Center  328 is at   2.904968 -2.047746  2.061207
      ESP Fit Center  329 is at   3.293327 -1.906395  2.061207
      ESP Fit Center  330 is at   3.609920 -1.640742  2.061207
      ESP Fit Center  331 is at   3.816561 -1.282829  2.061207
      ESP Fit Center  332 is at   4.228161 -0.875825  1.823252
      ESP Fit Center  333 is at   4.171431 -0.463080  1.823252
      ESP Fit Center  334 is at   4.005447 -0.080947  1.823252
      ESP Fit Center  335 is at   3.742520  0.242233  1.823252
      ESP Fit Center  336 is at   3.402150  0.482493  1.823252
      ESP Fit Center  337 is at   3.009581  0.622012  1.823252
      ESP Fit Center  338 is at   2.593927  0.650443  1.823252
      ESP Fit Center  339 is at   2.186016  0.565678  1.823252
      ESP Fit Center  340 is at   1.182741 -1.084137  1.823252
      ESP Fit Center  341 is at   1.295145 -1.485313  1.823252
      ESP Fit Center  342 is at   1.511617 -1.841285  1.823252
      ESP Fit Center  343 is at   1.816101 -2.125654  1.823252
      ESP Fit Center  344 is at   2.186016 -2.317328  1.823252
      ESP Fit Center  345 is at   2.593927 -2.402093  1.823252
      ESP Fit Center  346 is at   3.009581 -2.373661  1.823252
      ESP Fit Center  347 is at   3.402150 -2.234142  1.823252
      ESP Fit Center  348 is at   3.742520 -1.993883  1.823252
      ESP Fit Center  349 is at   4.005447 -1.670702  1.823252
      ESP Fit Center  350 is at   4.171431 -1.288569  1.823252
      ESP Fit Center  351 is at   4.521513 -0.875825  1.529901
      ESP Fit Center  352 is at   4.472368 -0.455369  1.529901
      ESP Fit Center  353 is at   4.327585 -0.057581  1.529901
      ESP Fit Center  354 is at   4.094968  0.296096  1.529901
      ESP Fit Center  355 is at   3.787058  0.586595  1.529901
      ESP Fit Center  356 is at   3.420454  0.798254  1.529901
      ESP Fit Center  357 is at   3.014920  0.919663  1.529901
      ESP Fit Center  358 is at   2.592318  0.944276  1.529901
      ESP Fit Center  359 is at   1.175077 -1.877682  1.529901
      ESP Fit Center  360 is at   1.447181 -2.201962  1.529901
      ESP Fit Center  361 is at   1.786734 -2.454750  1.529901
      ESP Fit Center  362 is at   2.175431 -2.622418  1.529901
      ESP Fit Center  363 is at   2.592318 -2.695926  1.529901
      ESP Fit Center  364 is at   3.014920 -2.671312  1.529901
      ESP Fit Center  365 is at   3.420454 -2.549903  1.529901
      ESP Fit Center  366 is at   3.787058 -2.338244  1.529901
      ESP Fit Center  367 is at   4.094968 -2.047746  1.529901
      ESP Fit Center  368 is at   4.327585 -1.694069  1.529901
      ESP Fit Center  369 is at   4.472368 -1.296280  1.529901
      ESP Fit Center  370 is at   4.759467 -0.875825  1.190067
      ESP Fit Center  371 is at   4.717276 -0.460920  1.190067
      ESP Fit Center  372 is at   4.592428 -0.063002  1.190067
      ESP Fit Center  373 is at   4.390035  0.301639  1.190067
      ESP Fit Center  374 is at   4.118384  0.618075  1.190067
      ESP Fit Center  375 is at   3.788596  0.873350  1.190067
      ESP Fit Center  376 is at   3.414172  1.057014  1.190067
      ESP Fit Center  377 is at   1.134420 -2.218395  1.190067
      ESP Fit Center  378 is at   1.436690 -2.505725  1.190067
      ESP Fit Center  379 is at   1.790613 -2.726326  1.190067
      ESP Fit Center  380 is at   2.181697 -2.871168  1.190067
      ESP Fit Center  381 is at   2.593932 -2.934320  1.190067
      ESP Fit Center  382 is at   3.010441 -2.913197  1.190067
      ESP Fit Center  383 is at   3.414172 -2.808664  1.190067
      ESP Fit Center  384 is at   3.788596 -2.625000  1.190067
      ESP Fit Center  385 is at   4.118384 -2.369725  1.190067
      ESP Fit Center  386 is at   4.390035 -2.053289  1.190067
      ESP Fit Center  387 is at   4.592428 -1.688648  1.190067
      ESP Fit Center  388 is at   4.717276 -1.290729  1.190067
      ESP Fit Center  389 is at   4.934795 -0.875825  0.814075
      ESP Fit Center  390 is at   4.894379 -0.452570  0.814075
      ESP Fit Center  391 is at   4.774592 -0.044613  0.814075
      ESP Fit Center  392 is at   4.579764  0.333301  0.814075
      ESP Fit Center  393 is at   4.316935  0.667515  0.814075
      ESP Fit Center  394 is at   3.995606  0.945949  0.814075
      ESP Fit Center  395 is at   3.627389  1.158538  0.814075
      ESP Fit Center  396 is at   1.580093 -2.812663  0.814075
      ESP Fit Center  397 is at   1.966850 -2.989289  0.814075
      ESP Fit Center  398 is at   2.380044 -3.089529  0.814075
      ESP Fit Center  399 is at   2.804742 -3.109760  0.814075
      ESP Fit Center  400 is at   3.225594 -3.049251  0.814075
      ESP Fit Center  401 is at   3.627389 -2.910188  0.814075
      ESP Fit Center  402 is at   3.995606 -2.697598  0.814075
      ESP Fit Center  403 is at   4.316935 -2.419165  0.814075
      ESP Fit Center  404 is at   4.579764 -2.084951  0.814075
      ESP Fit Center  405 is at   4.774592 -1.707036  0.814075
      ESP Fit Center  406 is at   4.894379 -1.299079  0.814075
      ESP Fit Center  407 is at   5.042169 -0.875825  0.413349
      ESP Fit Center  408 is at   5.004503 -0.457316  0.413349
      ESP Fit Center  409 is at   4.892714 -0.052258  0.413349
      ESP Fit Center  410 is at   4.710395  0.326330  0.413349
      ESP Fit Center  411 is at   4.463408  0.666280  0.413349
      ESP Fit Center  412 is at   4.159689  0.956665  0.413349
      ESP Fit Center  413 is at   3.809000  1.188152  0.413349
      ESP Fit Center  414 is at   1.407111 -2.831933  0.413349
      ESP Fit Center  415 is at   1.777138 -3.031053  0.413349
      ESP Fit Center  416 is at   2.176773 -3.160902  0.413349
      ESP Fit Center  417 is at   2.593171 -3.217307  0.413349
      ESP Fit Center  418 is at   3.012948 -3.198455  0.413349
      ESP Fit Center  419 is at   3.422614 -3.104951  0.413349
      ESP Fit Center  420 is at   3.809000 -2.939802  0.413349
      ESP Fit Center  421 is at   4.159689 -2.708315  0.413349
      ESP Fit Center  422 is at   4.463408 -2.417930  0.413349
      ESP Fit Center  423 is at   4.710395 -2.077980  0.413349
      ESP Fit Center  424 is at   4.892714 -1.699392  0.413349
      ESP Fit Center  425 is at   5.004503 -1.294334  0.413349
      ESP Fit Center  426 is at   5.078327 -0.875825  0.000067
      ESP Fit Center  427 is at   5.042169 -0.462542  0.000067
      ESP Fit Center  428 is at   4.934795 -0.061817  0.000067
      ESP Fit Center  429 is at   4.759467  0.314175  0.000067
      ESP Fit Center  430 is at   4.521513  0.654010  0.000067
      ESP Fit Center  431 is at   4.228161  0.947361  0.000067
      ESP Fit Center  432 is at   3.888327  1.185316  0.000067
      ESP Fit Center  433 is at   1.508327 -2.936965  0.000067
      ESP Fit Center  434 is at   1.884319 -3.112293  0.000067
      ESP Fit Center  435 is at   2.285044 -3.219667  0.000067
      ESP Fit Center  436 is at   2.698327 -3.255825  0.000067
      ESP Fit Center  437 is at   3.111609 -3.219667  0.000067
      ESP Fit Center  438 is at   3.512335 -3.112293  0.000067
      ESP Fit Center  439 is at   3.888327 -2.936965  0.000067
      ESP Fit Center  440 is at   4.228161 -2.699011  0.000067
      ESP Fit Center  441 is at   4.521513 -2.405659  0.000067
      ESP Fit Center  442 is at   4.759467 -2.065825  0.000067
      ESP Fit Center  443 is at   4.934795 -1.689833  0.000067
      ESP Fit Center  444 is at   5.042169 -1.289107  0.000067
      ESP Fit Center  445 is at   5.042169 -0.875825 -0.413216
      ESP Fit Center  446 is at   5.004503 -0.457316 -0.413216
      ESP Fit Center  447 is at   4.892714 -0.052258 -0.413216
      ESP Fit Center  448 is at   4.710395  0.326330 -0.413216
      ESP Fit Center  449 is at   4.463408  0.666280 -0.413216
      ESP Fit Center  450 is at   4.159689  0.956665 -0.413216
      ESP Fit Center  451 is at   3.809000  1.188152 -0.413216
      ESP Fit Center  452 is at   1.407111 -2.831933 -0.413216
      ESP Fit Center  453 is at   1.777138 -3.031053 -0.413216
      ESP Fit Center  454 is at   2.176773 -3.160902 -0.413216
      ESP Fit Center  455 is at   2.593171 -3.217307 -0.413216
      ESP Fit Center  456 is at   3.012948 -3.198455 -0.413216
      ESP Fit Center  457 is at   3.422614 -3.104951 -0.413216
      ESP Fit Center  458 is at   3.809000 -2.939802 -0.413216
      ESP Fit Center  459 is at   4.159689 -2.708315 -0.413216
      ESP Fit Center  460 is at   4.463408 -2.417930 -0.413216
      ESP Fit Center  461 is at   4.710395 -2.077980 -0.413216
      ESP Fit Center  462 is at   4.892714 -1.699392 -0.413216
      ESP Fit Center  463 is at   5.004503 -1.294334 -0.413216
      ESP Fit Center  464 is at   4.934795 -0.875825 -0.813941
      ESP Fit Center  465 is at   4.894379 -0.452570 -0.813941
      ESP Fit Center  466 is at   4.774592 -0.044613 -0.813941
      ESP Fit Center  467 is at   4.579764  0.333301 -0.813941
      ESP Fit Center  468 is at   4.316935  0.667515 -0.813941
      ESP Fit Center  469 is at   3.995606  0.945949 -0.813941
      ESP Fit Center  470 is at   3.627389  1.158538 -0.813941
      ESP Fit Center  471 is at   1.580093 -2.812663 -0.813941
      ESP Fit Center  472 is at   1.966850 -2.989289 -0.813941
      ESP Fit Center  473 is at   2.380044 -3.089529 -0.813941
      ESP Fit Center  474 is at   2.804742 -3.109760 -0.813941
      ESP Fit Center  475 is at   3.225594 -3.049251 -0.813941
      ESP Fit Center  476 is at   3.627389 -2.910188 -0.813941
      ESP Fit Center  477 is at   3.995606 -2.697598 -0.813941
      ESP Fit Center  478 is at   4.316935 -2.419165 -0.813941
      ESP Fit Center  479 is at   4.579764 -2.084951 -0.813941
      ESP Fit Center  480 is at   4.774592 -1.707036 -0.813941
      ESP Fit Center  481 is at   4.894379 -1.299079 -0.813941
      ESP Fit Center  482 is at   4.759467 -0.875825 -1.189933
      ESP Fit Center  483 is at   4.717276 -0.460920 -1.189933
      ESP Fit Center  484 is at   4.592428 -0.063002 -1.189933
      ESP Fit Center  485 is at   4.390035  0.301639 -1.189933
      ESP Fit Center  486 is at   4.118384  0.618075 -1.189933
      ESP Fit Center  487 is at   3.788596  0.873350 -1.189933
      ESP Fit Center  488 is at   3.414172  1.057014 -1.189933
      ESP Fit Center  489 is at   1.134420 -2.218395 -1.189933
      ESP Fit Center  490 is at   1.436690 -2.505725 -1.189933
      ESP Fit Center  491 is at   1.790613 -2.726326 -1.189933
      ESP Fit Center  492 is at   2.181697 -2.871168 -1.189933
      ESP Fit Center  493 is at   2.593932 -2.934320 -1.189933
      ESP Fit Center  494 is at   3.010441 -2.913197 -1.189933
      ESP Fit Center  495 is at   3.414172 -2.808664 -1.189933
      ESP Fit Center  496 is at   3.788596 -2.625000 -1.189933
      ESP Fit Center  497 is at   4.118384 -2.369725 -1.189933
      ESP Fit Center  498 is at   4.390035 -2.053289 -1.189933
      ESP Fit Center  499 is at   4.592428 -1.688648 -1.189933
      ESP Fit Center  500 is at   4.717276 -1.290729 -1.189933
      ESP Fit Center  501 is at   4.521513 -0.875825 -1.529768
      ESP Fit Center  502 is at   4.472368 -0.455369 -1.529768
      ESP Fit Center  503 is at   4.327585 -0.057581 -1.529768
      ESP Fit Center  504 is at   4.094968  0.296096 -1.529768
      ESP Fit Center  505 is at   3.787058  0.586595 -1.529768
      ESP Fit Center  506 is at   3.420454  0.798254 -1.529768
      ESP Fit Center  507 is at   3.014920  0.919663 -1.529768
      ESP Fit Center  508 is at   2.592318  0.944276 -1.529768
      ESP Fit Center  509 is at   1.175077 -1.877682 -1.529768
      ESP Fit Center  510 is at   1.447181 -2.201962 -1.529768
      ESP Fit Center  511 is at   1.786734 -2.454750 -1.529768
      ESP Fit Center  512 is at   2.175431 -2.622418 -1.529768
      ESP Fit Center  513 is at   2.592318 -2.695926 -1.529768
      ESP Fit Center  514 is at   3.014920 -2.671312 -1.529768
      ESP Fit Center  515 is at   3.420454 -2.549903 -1.529768
      ESP Fit Center  516 is at   3.787058 -2.338244 -1.529768
      ESP Fit Center  517 is at   4.094968 -2.047746 -1.529768
      ESP Fit Center  518 is at   4.327585 -1.694069 -1.529768
      ESP Fit Center  519 is at   4.472368 -1.296280 -1.529768
      ESP Fit Center  520 is at   4.228161 -0.875825 -1.823119
      ESP Fit Center  521 is at   4.171431 -0.463080 -1.823119
      ESP Fit Center  522 is at   4.005447 -0.080947 -1.823119
      ESP Fit Center  523 is at   3.742520  0.242233 -1.823119
      ESP Fit Center  524 is at   3.402150  0.482493 -1.823119
      ESP Fit Center  525 is at   3.009581  0.622012 -1.823119
      ESP Fit Center  526 is at   2.593927  0.650443 -1.823119
      ESP Fit Center  527 is at   2.186016  0.565678 -1.823119
      ESP Fit Center  528 is at   1.182741 -1.084137 -1.823119
      ESP Fit Center  529 is at   1.295145 -1.485313 -1.823119
      ESP Fit Center  530 is at   1.511617 -1.841285 -1.823119
      ESP Fit Center  531 is at   1.816101 -2.125654 -1.823119
      ESP Fit Center  532 is at   2.186016 -2.317328 -1.823119
      ESP Fit Center  533 is at   2.593927 -2.402093 -1.823119
      ESP Fit Center  534 is at   3.009581 -2.373661 -1.823119
      ESP Fit Center  535 is at   3.402150 -2.234142 -1.823119
      ESP Fit Center  536 is at   3.742520 -1.993883 -1.823119
      ESP Fit Center  537 is at   4.005447 -1.670702 -1.823119
      ESP Fit Center  538 is at   4.171431 -1.288569 -1.823119
      ESP Fit Center  539 is at   3.888327 -0.875825 -2.061074
      ESP Fit Center  540 is at   3.816561 -0.468821 -2.061074
      ESP Fit Center  541 is at   3.609920 -0.110908 -2.061074
      ESP Fit Center  542 is at   3.293327  0.154745 -2.061074
      ESP Fit Center  543 is at   2.904968  0.296096 -2.061074
      ESP Fit Center  544 is at   2.491685  0.296096 -2.061074
      ESP Fit Center  545 is at   2.103327  0.154745 -2.061074
      ESP Fit Center  546 is at   1.786734 -0.110908 -2.061074
      ESP Fit Center  547 is at   1.580093 -0.468821 -2.061074
      ESP Fit Center  548 is at   1.508327 -0.875825 -2.061074
      ESP Fit Center  549 is at   1.580093 -1.282829 -2.061074
      ESP Fit Center  550 is at   1.786734 -1.640742 -2.061074
      ESP Fit Center  551 is at   2.103327 -1.906395 -2.061074
      ESP Fit Center  552 is at   2.491685 -2.047746 -2.061074
      ESP Fit Center  553 is at   2.904968 -2.047746 -2.061074
      ESP Fit Center  554 is at   3.293327 -1.906395 -2.061074
      ESP Fit Center  555 is at   3.609920 -1.640742 -2.061074
      ESP Fit Center  556 is at   3.816561 -1.282829 -2.061074
      ESP Fit Center  557 is at   3.512335 -0.875825 -2.236402
      ESP Fit Center  558 is at   3.403278 -0.468821 -2.236402
      ESP Fit Center  559 is at   3.105331 -0.170873 -2.236402
      ESP Fit Center  560 is at   2.698327 -0.061817 -2.236402
      ESP Fit Center  561 is at   2.291323 -0.170873 -2.236402
      ESP Fit Center  562 is at   1.993375 -0.468821 -2.236402
      ESP Fit Center  563 is at   1.884319 -0.875825 -2.236402
      ESP Fit Center  564 is at   1.993375 -1.282829 -2.236402
      ESP Fit Center  565 is at   2.291323 -1.580776 -2.236402
      ESP Fit Center  566 is at   2.698327 -1.689833 -2.236402
      ESP Fit Center  567 is at   3.105331 -1.580776 -2.236402
      ESP Fit Center  568 is at   3.403278 -1.282829 -2.236402
      ESP Fit Center  569 is at   3.111609 -0.875825 -2.343776
      ESP Fit Center  570 is at   2.904968 -0.517912 -2.343776
      ESP Fit Center  571 is at   2.491685 -0.517912 -2.343776
      ESP Fit Center  572 is at   2.285044 -0.875825 -2.343776
      ESP Fit Center  573 is at   2.491685 -1.233738 -2.343776
      ESP Fit Center  574 is at   2.904968 -1.233738 -2.343776
      ESP Fit Center  575 is at   2.698327 -0.875825 -2.379933
      ESP Fit Center  576 is at  -2.698809 -0.875434  2.379785
      ESP Fit Center  577 is at  -2.285526 -0.875434  2.343628
      ESP Fit Center  578 is at  -2.492168 -0.517521  2.343628
      ESP Fit Center  579 is at  -2.905450 -0.517521  2.343628
      ESP Fit Center  580 is at  -3.112092 -0.875434  2.343628
      ESP Fit Center  581 is at  -2.905450 -1.233347  2.343628
      ESP Fit Center  582 is at  -2.492168 -1.233347  2.343628
      ESP Fit Center  583 is at  -1.884801 -0.875434  2.236254
      ESP Fit Center  584 is at  -1.993858 -0.468430  2.236254
      ESP Fit Center  585 is at  -2.291805 -0.170483  2.236254
      ESP Fit Center  586 is at  -2.698809 -0.061426  2.236254
      ESP Fit Center  587 is at  -3.105813 -0.170483  2.236254
      ESP Fit Center  588 is at  -3.403761 -0.468430  2.236254
      ESP Fit Center  589 is at  -3.512817 -0.875434  2.236254
      ESP Fit Center  590 is at  -3.403761 -1.282438  2.236254
      ESP Fit Center  591 is at  -3.105813 -1.580386  2.236254
      ESP Fit Center  592 is at  -2.698809 -1.689442  2.236254
      ESP Fit Center  593 is at  -2.291805 -1.580386  2.236254
      ESP Fit Center  594 is at  -1.993858 -1.282438  2.236254
      ESP Fit Center  595 is at  -1.508809 -0.875434  2.060926
      ESP Fit Center  596 is at  -1.580575 -0.468430  2.060926
      ESP Fit Center  597 is at  -1.787216 -0.110517  2.060926
      ESP Fit Center  598 is at  -2.103809  0.155136  2.060926
      ESP Fit Center  599 is at  -2.492168  0.296487  2.060926
      ESP Fit Center  600 is at  -2.905450  0.296487  2.060926
      ESP Fit Center  601 is at  -3.293809  0.155136  2.060926
      ESP Fit Center  602 is at  -3.610402 -0.110517  2.060926
      ESP Fit Center  603 is at  -3.817043 -0.468430  2.060926
      ESP Fit Center  604 is at  -3.888809 -0.875434  2.060926
      ESP Fit Center  605 is at  -3.817043 -1.282438  2.060926
      ESP Fit Center  606 is at  -3.610402 -1.640351  2.060926
      ESP Fit Center  607 is at  -3.293809 -1.906004  2.060926
      ESP Fit Center  608 is at  -2.905450 -2.047355  2.060926
      ESP Fit Center  609 is at  -2.492168 -2.047355  2.060926
      ESP Fit Center  610 is at  -2.103809 -1.906004  2.060926
      ESP Fit Center  611 is at  -1.787216 -1.640351  2.060926
      ESP Fit Center  612 is at  -1.580575 -1.282438  2.060926
      ESP Fit Center  613 is at  -2.387555  0.622403  1.822971
      ESP Fit Center  614 is at  -2.803209  0.650834  1.822971
      ESP Fit Center  615 is at  -3.211120  0.566069  1.822971
      ESP Fit Center  616 is at  -3.581035  0.374395  1.822971
      ESP Fit Center  617 is at  -3.885519  0.090026  1.822971
      ESP Fit Center  618 is at  -4.101991 -0.265946  1.822971
      ESP Fit Center  619 is at  -4.214395 -0.667122  1.822971
      ESP Fit Center  620 is at  -4.214395 -1.083747  1.822971
      ESP Fit Center  621 is at  -4.101991 -1.484922  1.822971
      ESP Fit Center  622 is at  -3.885519 -1.840894  1.822971
      ESP Fit Center  623 is at  -3.581035 -2.125263  1.822971
      ESP Fit Center  624 is at  -3.211120 -2.316937  1.822971
      ESP Fit Center  625 is at  -2.803209 -2.401702  1.822971
      ESP Fit Center  626 is at  -2.387555 -2.373271  1.822971
      ESP Fit Center  627 is at  -1.994986 -2.233752  1.822971
      ESP Fit Center  628 is at  -1.654616 -1.993492  1.822971
      ESP Fit Center  629 is at  -1.391689 -1.670312  1.822971
      ESP Fit Center  630 is at  -1.225705 -1.288178  1.822971
      ESP Fit Center  631 is at  -2.804818  0.944667  1.529620
      ESP Fit Center  632 is at  -3.221705  0.871159  1.529620
      ESP Fit Center  633 is at  -3.610402  0.703491  1.529620
      ESP Fit Center  634 is at  -3.949955  0.450703  1.529620
      ESP Fit Center  635 is at  -4.222059  0.126423  1.529620
      ESP Fit Center  636 is at  -4.412043 -0.251868  1.529620
      ESP Fit Center  637 is at  -4.509667 -0.663775  1.529620
      ESP Fit Center  638 is at  -4.509667 -1.087093  1.529620
      ESP Fit Center  639 is at  -4.412043 -1.499000  1.529620
      ESP Fit Center  640 is at  -4.222059 -1.877291  1.529620
      ESP Fit Center  641 is at  -3.949955 -2.201571  1.529620
      ESP Fit Center  642 is at  -3.610402 -2.454359  1.529620
      ESP Fit Center  643 is at  -3.221705 -2.622027  1.529620
      ESP Fit Center  644 is at  -2.804818 -2.695535  1.529620
      ESP Fit Center  645 is at  -2.382216 -2.670922  1.529620
      ESP Fit Center  646 is at  -1.976682 -2.549513  1.529620
      ESP Fit Center  647 is at  -1.610078 -2.337854  1.529620
      ESP Fit Center  648 is at  -1.302168 -2.047355  1.529620
      ESP Fit Center  649 is at  -1.069551 -1.693678  1.529620
      ESP Fit Center  650 is at  -3.215439  1.119909  1.189785
      ESP Fit Center  651 is at  -3.606523  0.975067  1.189785
      ESP Fit Center  652 is at  -3.960446  0.754466  1.189785
      ESP Fit Center  653 is at  -4.262716  0.467136  1.189785
      ESP Fit Center  654 is at  -4.500960  0.124841  1.189785
      ESP Fit Center  655 is at  -4.665424 -0.258405  1.189785
      ESP Fit Center  656 is at  -4.749375 -0.666912  1.189785
      ESP Fit Center  657 is at  -4.749375 -1.083956  1.189785
      ESP Fit Center  658 is at  -4.665424 -1.492464  1.189785
      ESP Fit Center  659 is at  -4.500960 -1.875710  1.189785
      ESP Fit Center  660 is at  -4.262716 -2.218004  1.189785
      ESP Fit Center  661 is at  -3.960446 -2.505334  1.189785
      ESP Fit Center  662 is at  -3.606523 -2.725935  1.189785
      ESP Fit Center  663 is at  -3.215439 -2.870777  1.189785
      ESP Fit Center  664 is at  -2.803204 -2.933929  1.189785
      ESP Fit Center  665 is at  -2.386695 -2.912806  1.189785
      ESP Fit Center  666 is at  -1.982964 -2.808273  1.189785
      ESP Fit Center  667 is at  -1.608540 -2.624609  1.189785
      ESP Fit Center  668 is at  -1.278752 -2.369334  1.189785
      ESP Fit Center  669 is at  -3.817043  1.061404  0.813793
      ESP Fit Center  670 is at  -4.163384  0.814776  0.813793
      ESP Fit Center  671 is at  -4.456792  0.507059  0.813793
      ESP Fit Center  672 is at  -4.686662  0.149375  0.813793
      ESP Fit Center  673 is at  -4.844685 -0.245348  0.813793
      ESP Fit Center  674 is at  -4.925151 -0.662844  0.813793
      ESP Fit Center  675 is at  -4.925151 -1.088024  0.813793
      ESP Fit Center  676 is at  -4.844685 -1.505520  0.813793
      ESP Fit Center  677 is at  -4.686662 -1.900243  0.813793
      ESP Fit Center  678 is at  -4.456792 -2.257927  0.813793
      ESP Fit Center  679 is at  -4.163384 -2.565644  0.813793
      ESP Fit Center  680 is at  -3.817043 -2.812273  0.813793
      ESP Fit Center  681 is at  -3.430286 -2.988899  0.813793
      ESP Fit Center  682 is at  -3.017092 -3.089138  0.813793
      ESP Fit Center  683 is at  -2.592394 -3.109369  0.813793
      ESP Fit Center  684 is at  -2.171542 -3.048860  0.813793
      ESP Fit Center  685 is at  -1.769747 -2.909797  0.813793
      ESP Fit Center  686 is at  -1.401530 -2.697207  0.813793
      ESP Fit Center  687 is at  -3.990025  1.080674  0.413068
      ESP Fit Center  688 is at  -4.318551  0.818683  0.413068
      ESP Fit Center  689 is at  -4.595018  0.502242  0.413068
      ESP Fit Center  690 is at  -4.810538  0.141521  0.413068
      ESP Fit Center  691 is at  -4.958186 -0.251886  0.413068
      ESP Fit Center  692 is at  -5.033216 -0.665334  0.413068
      ESP Fit Center  693 is at  -5.033216 -1.085534  0.413068
      ESP Fit Center  694 is at  -4.958186 -1.498983  0.413068
      ESP Fit Center  695 is at  -4.810538 -1.892389  0.413068
      ESP Fit Center  696 is at  -4.595018 -2.253110  0.413068
      ESP Fit Center  697 is at  -4.318551 -2.569551  0.413068
      ESP Fit Center  698 is at  -3.990025 -2.831542  0.413068
      ESP Fit Center  699 is at  -3.619998 -3.030662  0.413068
      ESP Fit Center  700 is at  -3.220363 -3.160511  0.413068
      ESP Fit Center  701 is at  -2.803965 -3.216916  0.413068
      ESP Fit Center  702 is at  -2.384187 -3.198064  0.413068
      ESP Fit Center  703 is at  -1.974522 -3.104561  0.413068
      ESP Fit Center  704 is at  -1.588136 -2.939411  0.413068
      ESP Fit Center  705 is at  -3.888809  1.185706 -0.000215
      ESP Fit Center  706 is at  -4.228644  0.947752 -0.000215
      ESP Fit Center  707 is at  -4.521995  0.654400 -0.000215
      ESP Fit Center  708 is at  -4.759950  0.314566 -0.000215
      ESP Fit Center  709 is at  -4.935278 -0.061426 -0.000215
      ESP Fit Center  710 is at  -5.042652 -0.462151 -0.000215
      ESP Fit Center  711 is at  -5.078809 -0.875434 -0.000215
      ESP Fit Center  712 is at  -5.042652 -1.288717 -0.000215
      ESP Fit Center  713 is at  -4.935278 -1.689442 -0.000215
      ESP Fit Center  714 is at  -4.759950 -2.065434 -0.000215
      ESP Fit Center  715 is at  -4.521995 -2.405269 -0.000215
      ESP Fit Center  716 is at  -4.228644 -2.698620 -0.000215
      ESP Fit Center  717 is at  -3.888809 -2.936575 -0.000215
      ESP Fit Center  718 is at  -3.512817 -3.111903 -0.000215
      ESP Fit Center  719 is at  -3.112092 -3.219277 -0.000215
      ESP Fit Center  720 is at  -2.698809 -3.255434 -0.000215
      ESP Fit Center  721 is at  -2.285526 -3.219277 -0.000215
      ESP Fit Center  722 is at  -1.884801 -3.111903 -0.000215
      ESP Fit Center  723 is at  -1.508809 -2.936575 -0.000215
      ESP Fit Center  724 is at  -3.990025  1.080674 -0.413497
      ESP Fit Center  725 is at  -4.318551  0.818683 -0.413497
      ESP Fit Center  726 is at  -4.595018  0.502242 -0.413497
      ESP Fit Center  727 is at  -4.810538  0.141521 -0.413497
      ESP Fit Center  728 is at  -4.958186 -0.251886 -0.413497
      ESP Fit Center  729 is at  -5.033216 -0.665334 -0.413497
      ESP Fit Center  730 is at  -5.033216 -1.085534 -0.413497
      ESP Fit Center  731 is at  -4.958186 -1.498983 -0.413497
      ESP Fit Center  732 is at  -4.810538 -1.892389 -0.413497
      ESP Fit Center  733 is at  -4.595018 -2.253110 -0.413497
      ESP Fit Center  734 is at  -4.318551 -2.569551 -0.413497
      ESP Fit Center  735 is at  -3.990025 -2.831542 -0.413497
      ESP Fit Center  736 is at  -3.619998 -3.030662 -0.413497
      ESP Fit Center  737 is at  -3.220363 -3.160511 -0.413497
      ESP Fit Center  738 is at  -2.803965 -3.216916 -0.413497
      ESP Fit Center  739 is at  -2.384187 -3.198064 -0.413497
      ESP Fit Center  740 is at  -1.974522 -3.104561 -0.413497
      ESP Fit Center  741 is at  -1.588136 -2.939411 -0.413497
      ESP Fit Center  742 is at  -3.817043  1.061404 -0.814223
      ESP Fit Center  743 is at  -4.163384  0.814776 -0.814223
      ESP Fit Center  744 is at  -4.456792  0.507059 -0.814223
      ESP Fit Center  745 is at  -4.686662  0.149375 -0.814223
      ESP Fit Center  746 is at  -4.844685 -0.245348 -0.814223
      ESP Fit Center  747 is at  -4.925151 -0.662844 -0.814223
      ESP Fit Center  748 is at  -4.925151 -1.088024 -0.814223
      ESP Fit Center  749 is at  -4.844685 -1.505520 -0.814223
      ESP Fit Center  750 is at  -4.686662 -1.900243 -0.814223
      ESP Fit Center  751 is at  -4.456792 -2.257927 -0.814223
      ESP Fit Center  752 is at  -4.163384 -2.565644 -0.814223
      ESP Fit Center  753 is at  -3.817043 -2.812273 -0.814223
      ESP Fit Center  754 is at  -3.430286 -2.988899 -0.814223
      ESP Fit Center  755 is at  -3.017092 -3.089138 -0.814223
      ESP Fit Center  756 is at  -2.592394 -3.109369 -0.814223
      ESP Fit Center  757 is at  -2.171542 -3.048860 -0.814223
      ESP Fit Center  758 is at  -1.769747 -2.909797 -0.814223
      ESP Fit Center  759 is at  -1.401530 -2.697207 -0.814223
      ESP Fit Center  760 is at  -3.215439  1.119909 -1.190215
      ESP Fit Center  761 is at  -3.606523  0.975067 -1.190215
[...]
 4750 Fit      -0.001240
 4751 Fit      -0.002683
 4752 Fit      -0.003643
 4753 Fit      -0.004195
 4754 Fit      -0.004427
 4755 Fit      -0.004433
 4756 Fit      -0.004306
 4757 Fit      -0.004130
 4758 Fit      -0.003980
 4759 Fit      -0.003909
 4760 Fit      -0.003953
 4761 Fit      -0.004121
 4762 Fit      -0.004399
 4763 Fit      -0.004749
 4764 Fit      -0.005114
 4765 Fit      -0.005420
 4766 Fit      -0.005582
 4767 Fit      -0.005509
 4768 Fit      -0.005113
 4769 Fit      -0.004311
 4770 Fit      -0.003033
 4771 Fit      -0.001240
 4772 Fit       0.001046
 4773 Fit       0.004112
 4774 Fit       0.001204
 4775 Fit      -0.000944
 4776 Fit      -0.002438
 4777 Fit      -0.003387
 4778 Fit      -0.003899
 4779 Fit      -0.004080
 4780 Fit      -0.004030
 4781 Fit      -0.003849
 4782 Fit      -0.003623
 4783 Fit      -0.003426
 4784 Fit      -0.003318
 4785 Fit      -0.003332
 4786 Fit      -0.003484
 4787 Fit      -0.003764
 4788 Fit      -0.004138
 4789 Fit      -0.004554
 4790 Fit      -0.004941
 4791 Fit      -0.005214
 4792 Fit      -0.005282
 4793 Fit      -0.005046
 4794 Fit      -0.004402
 4795 Fit      -0.003245
 4796 Fit      -0.001466
 4797 Fit       0.001052
 4798 Fit       0.004417
 4799 Fit       0.001331
 4800 Fit      -0.000849
 4801 Fit      -0.002316
 4802 Fit      -0.003217
 4803 Fit      -0.003676
 4804 Fit      -0.003807
 4805 Fit      -0.003714
 4806 Fit      -0.003493
 4807 Fit      -0.003232
 4808 Fit      -0.003003
 4809 Fit      -0.002862
 4810 Fit      -0.002848
 4811 Fit      -0.002977
 4812 Fit      -0.003243
 4813 Fit      -0.003619
 4814 Fit      -0.004059
 4815 Fit      -0.004497
 4816 Fit      -0.004857
 4817 Fit      -0.005048
 4818 Fit      -0.004973
 4819 Fit      -0.004524
 4820 Fit      -0.003586
 4821 Fit      -0.002021
 4822 Fit       0.000348
 4823 Fit       0.002947
 4824 Fit       0.000261
 4825 Fit      -0.001560
 4826 Fit      -0.002716
 4827 Fit      -0.003359
 4828 Fit      -0.003614
 4829 Fit      -0.003594
 4830 Fit      -0.003400
 4831 Fit      -0.003126
 4832 Fit      -0.002850
 4833 Fit      -0.002640
 4834 Fit      -0.002541
 4835 Fit      -0.002584
 4836 Fit      -0.002774
 4837 Fit      -0.003098
 4838 Fit      -0.003521
 4839 Fit      -0.003989
 4840 Fit      -0.004434
 4841 Fit      -0.004772
 4842 Fit      -0.004912
 4843 Fit      -0.004748
 4844 Fit      -0.004168
 4845 Fit      -0.003038
 4846 Fit      -0.001187
 4847 Fit       0.001634
 4848 Fit       0.004405
 4849 Fit       0.001291
 4850 Fit      -0.000845
 4851 Fit      -0.002247
 4852 Fit      -0.003083
 4853 Fit      -0.003486
 4854 Fit      -0.003571
 4855 Fit      -0.003441
 4856 Fit      -0.003191
 4857 Fit      -0.002902
 4858 Fit      -0.002647
 4859 Fit      -0.002480
 4860 Fit      -0.002438
 4861 Fit      -0.002541
 4862 Fit      -0.002786
 4863 Fit      -0.003152
 4864 Fit      -0.003599
 4865 Fit      -0.004069
 4866 Fit      -0.004492
 4867 Fit      -0.004784
 4868 Fit      -0.004852
 4869 Fit      -0.004594
 4870 Fit      -0.003893
 4871 Fit      -0.002610
 4872 Fit      -0.000557
 4873 Fit       0.002947
 4874 Fit       0.000261
 4875 Fit      -0.001560
 4876 Fit      -0.002716
 4877 Fit      -0.003359
 4878 Fit      -0.003614
 4879 Fit      -0.003594
 4880 Fit      -0.003400
 4881 Fit      -0.003126
 4882 Fit      -0.002851
 4883 Fit      -0.002640
 4884 Fit      -0.002542
 4885 Fit      -0.002584
 4886 Fit      -0.002774
 4887 Fit      -0.003098
 4888 Fit      -0.003521
 4889 Fit      -0.003989
 4890 Fit      -0.004434
 4891 Fit      -0.004773
 4892 Fit      -0.004912
 4893 Fit      -0.004748
 4894 Fit      -0.004168
 4895 Fit      -0.003038
 4896 Fit      -0.001187
 4897 Fit       0.001634
 4898 Fit       0.004417
 4899 Fit       0.001331
 4900 Fit      -0.000849
 4901 Fit      -0.002316
 4902 Fit      -0.003217
 4903 Fit      -0.003676
 4904 Fit      -0.003807
 4905 Fit      -0.003714
 4906 Fit      -0.003493
 4907 Fit      -0.003232
 4908 Fit      -0.003003
 4909 Fit      -0.002863
 4910 Fit      -0.002849
 4911 Fit      -0.002977
 4912 Fit      -0.003243
 4913 Fit      -0.003619
 4914 Fit      -0.004059
 4915 Fit      -0.004498
 4916 Fit      -0.004857
 4917 Fit      -0.005048
 4918 Fit      -0.004973
 4919 Fit      -0.004524
 4920 Fit      -0.003586
 4921 Fit      -0.002021
 4922 Fit       0.000348
 4923 Fit       0.004112
 4924 Fit       0.001204
 4925 Fit      -0.000944
 4926 Fit      -0.002438
 4927 Fit      -0.003388
 4928 Fit      -0.003900
 4929 Fit      -0.004080
 4930 Fit      -0.004031
 4931 Fit      -0.003849
 4932 Fit      -0.003623
 4933 Fit      -0.003427
 4934 Fit      -0.003318
 4935 Fit      -0.003333
 4936 Fit      -0.003485
 4937 Fit      -0.003764
 4938 Fit      -0.004138
 4939 Fit      -0.004554
 4940 Fit      -0.004941
 4941 Fit      -0.005215
 4942 Fit      -0.005283
 4943 Fit      -0.005046
 4944 Fit      -0.004402
 4945 Fit      -0.003245
 4946 Fit      -0.001466
 4947 Fit       0.001052
 4948 Fit       0.003226
 4949 Fit       0.000733
 4950 Fit      -0.001240
 4951 Fit      -0.002683
 4952 Fit      -0.003643
 4953 Fit      -0.004195
 4954 Fit      -0.004427
 4955 Fit      -0.004434
 4956 Fit      -0.004306
 4957 Fit      -0.004131
 4958 Fit      -0.003980
 4959 Fit      -0.003910
 4960 Fit      -0.003953
 4961 Fit      -0.004121
 4962 Fit      -0.004399
 4963 Fit      -0.004749
 4964 Fit      -0.005114
 4965 Fit      -0.005420
 4966 Fit      -0.005582
 4967 Fit      -0.005510
 4968 Fit      -0.005114
 4969 Fit      -0.004311
 4970 Fit      -0.003033
 4971 Fit      -0.001240
 4972 Fit       0.001046
 4973 Fit       0.002668
 4974 Fit       0.000590
 4975 Fit      -0.001279
 4976 Fit      -0.002763
 4977 Fit      -0.003821
 4978 Fit      -0.004479
 4979 Fit      -0.004806
 4980 Fit      -0.004890
 4981 Fit      -0.004827
 4982 Fit      -0.004708
 4983 Fit      -0.004611
 4984 Fit      -0.004592
 4985 Fit      -0.004683
 4986 Fit      -0.004886
 4987 Fit      -0.005174
 4988 Fit      -0.005495
 4989 Fit      -0.005774
 4990 Fit      -0.005925
 4991 Fit      -0.005856
 4992 Fit      -0.005480
 4993 Fit      -0.004730
 4994 Fit      -0.003574
 4995 Fit      -0.002044
 4996 Fit      -0.000288
 4997 Fit       0.001375
 4998 Fit       0.000011
 4999 Fit      -0.001532
 5000 Fit      -0.002930
 5001 Fit      -0.004023
 5002 Fit      -0.004765
 5003 Fit      -0.005186
 5004 Fit      -0.005357
 5005 Fit      -0.005371
 5006 Fit      -0.005319
 5007 Fit      -0.005281
 5008 Fit      -0.005315
 5009 Fit      -0.005444
 5010 Fit      -0.005660
 5011 Fit      -0.005922
 5012 Fit      -0.006159
 5013 Fit      -0.006287
 5014 Fit      -0.006215
 5015 Fit      -0.005863
 5016 Fit      -0.005182
 5017 Fit      -0.004181
 5018 Fit      -0.002957
 5019 Fit      -0.001744
 5020 Fit      -0.000452
 5021 Fit      -0.001006
 5022 Fit      -0.002044
 5023 Fit      -0.003211
 5024 Fit      -0.004252
 5025 Fit      -0.005036
 5026 Fit      -0.005537
 5027 Fit      -0.005795
 5028 Fit      -0.005891
 5029 Fit      -0.005911
 5030 Fit      -0.005935
 5031 Fit      -0.006014
 5032 Fit      -0.006163
 5033 Fit      -0.006359
 5034 Fit      -0.006544
 5035 Fit      -0.006639
 5036 Fit      -0.006558
 5037 Fit      -0.006229
 5038 Fit      -0.005627
 5039 Fit      -0.004793
 5040 Fit      -0.003873
 5041 Fit      -0.003119
 5042 Fit      -0.002334
 5043 Fit      -0.002418
 5044 Fit      -0.003046
 5045 Fit      -0.003942
 5046 Fit      -0.004832
 5047 Fit      -0.005540
 5048 Fit      -0.006010
 5049 Fit      -0.006271
 5050 Fit      -0.006398
 5051 Fit      -0.006477
 5052 Fit      -0.006572
 5053 Fit      -0.006705
 5054 Fit      -0.006850
 5055 Fit      -0.006943
 5056 Fit      -0.006899
 5057 Fit      -0.006644
 5058 Fit      -0.006151
 5059 Fit      -0.005478
 5060 Fit      -0.004784
 5061 Fit      -0.004303
 5062 Fit      -0.004242
 5063 Fit      -0.005309
 5064 Fit      -0.005431
 5065 Fit      -0.005326
 5066 Fit      -0.004953
 5067 Fit      -0.004387
 5068 Fit      -0.003865
 5069 Fit      -0.003688
 5070 Fit      -0.003982
 5071 Fit      -0.004619
 5072 Fit      -0.005356
 5073 Fit      -0.005990
 5074 Fit      -0.006431
 5075 Fit      -0.006697
 5076 Fit      -0.006856
 5077 Fit      -0.006979
 5078 Fit      -0.007094
 5079 Fit      -0.007176
 5080 Fit      -0.007155
 5081 Fit      -0.006958
 5082 Fit      -0.006555
 5083 Fit      -0.006007
 5084 Fit      -0.005476
 5085 Fit      -0.005156
 5086 Fit      -0.005137
 5087 Fit      -0.005596
 5088 Fit      -0.005494
 5089 Fit      -0.005260
 5090 Fit      -0.004935
 5091 Fit      -0.004740
 5092 Fit      -0.004901
 5093 Fit      -0.005406
 5094 Fit      -0.006033
 5095 Fit      -0.006562
 5096 Fit      -0.006916
 5097 Fit      -0.007131
 5098 Fit      -0.007263
 5099 Fit      -0.007311
 5100 Fit      -0.007211
 5101 Fit      -0.006911
 5102 Fit      -0.006449
 5103 Fit      -0.005991
 5104 Fit      -0.005705
 5105 Fit      -0.005974
 5106 Fit      -0.005748
 5107 Fit      -0.005562
 5108 Fit      -0.005607
 5109 Fit      -0.006006
 5110 Fit      -0.006554
 5111 Fit      -0.006987
 5112 Fit      -0.007226
 5113 Fit      -0.007276
 5114 Fit      -0.007096
 5115 Fit      -0.006702
 5116 Fit      -0.006274
 5117 Fit      -0.006360
 5118 Fit      -0.006170
 5119 Fit      -0.006430
 5120 Fit      -0.006905
 5121 Fit      -0.007064
 5122 Fit      -0.006778
 5123 Fit      -0.006686
 5124 Fit       0.011118
 5125 Fit       0.011386
 5126 Fit       0.011386
 5127 Fit       0.011119
 5128 Fit       0.012505
 5129 Fit       0.012743
 5130 Fit       0.012874
 5131 Fit       0.012901
 5132 Fit       0.012821
 5133 Fit       0.012639
 5134 Fit       0.012336
 5135 Fit       0.014027
 5136 Fit       0.014018
 5137 Fit       0.014050
 5138 Fit       0.014084
 5139 Fit       0.014093
 5140 Fit       0.014069
 5141 Fit       0.014032
 5142 Fit       0.014016
 5143 Fit       0.014053
 5144 Fit       0.015660
 5145 Fit       0.015267
 5146 Fit       0.015087
 5147 Fit       0.015023
 5148 Fit       0.015008
 5149 Fit       0.015007
 5150 Fit       0.015012
 5151 Fit       0.015045
 5152 Fit       0.015158
 5153 Fit       0.015431
 5154 Fit       0.015973
 5155 Fit       0.017142
 5156 Fit       0.016336
 5157 Fit       0.015931
 5158 Fit       0.015747
 5159 Fit       0.015674
 5160 Fit       0.015654
 5161 Fit       0.015660
 5162 Fit       0.015701
 5163 Fit       0.015819
 5164 Fit       0.016097
 5165 Fit       0.016675
 5166 Fit       0.017782
 5167 Fit       0.018319
 5168 Fit       0.017146
 5169 Fit       0.016536
 5170 Fit       0.016235
 5171 Fit       0.016100
 5172 Fit       0.016048
 5173 Fit       0.016040
 5174 Fit       0.016067
 5175 Fit       0.016153
 5176 Fit       0.016358
 5177 Fit       0.016790
 5178 Fit       0.017640
 5179 Fit       0.018813
 5180 Fit       0.017480
 5181 Fit       0.016778
 5182 Fit       0.016422
 5183 Fit       0.016255
 5184 Fit       0.016186
 5185 Fit       0.016167
 5186 Fit       0.016186
 5187 Fit       0.016255
 5188 Fit       0.016422
 5189 Fit       0.016778
 5190 Fit       0.017481
 5191 Fit       0.018814
 5192 Fit       0.018319
 5193 Fit       0.017146
 5194 Fit       0.016536
 5195 Fit       0.016235
 5196 Fit       0.016100
 5197 Fit       0.016048
 5198 Fit       0.016040
 5199 Fit       0.016067
 5200 Fit       0.016153
 5201 Fit       0.016358
 5202 Fit       0.016790
 5203 Fit       0.017640
 5204 Fit       0.017143
 5205 Fit       0.016336
 5206 Fit       0.015931
 5207 Fit       0.015746
 5208 Fit       0.015674
 5209 Fit       0.015654
 5210 Fit       0.015660
 5211 Fit       0.015701
 5212 Fit       0.015819
 5213 Fit       0.016097
 5214 Fit       0.016674
 5215 Fit       0.017782
 5216 Fit       0.015660
 5217 Fit       0.015267
 5218 Fit       0.015087
 5219 Fit       0.015023
 5220 Fit       0.015008
 5221 Fit       0.015006
 5222 Fit       0.015012
 5223 Fit       0.015045
 5224 Fit       0.015157
 5225 Fit       0.015430
 5226 Fit       0.015973
 5227 Fit       0.014027
 5228 Fit       0.014018
 5229 Fit       0.014050
 5230 Fit       0.014084
 5231 Fit       0.014092
 5232 Fit       0.014069
 5233 Fit       0.014031
 5234 Fit       0.014016
 5235 Fit       0.014052
 5236 Fit       0.012505
 5237 Fit       0.012743
 5238 Fit       0.012874
 5239 Fit       0.012900
 5240 Fit       0.012821
 5241 Fit       0.012638
 5242 Fit       0.012335
 5243 Fit       0.011118
 5244 Fit       0.011386
 5245 Fit       0.011386
 5246 Fit       0.011118
 5247 Fit       0.008336
 5248 Fit       0.007418
 5249 Fit       0.005967
 5250 Fit       0.003969
 5251 Fit       0.010582
 5252 Fit       0.009833
 5253 Fit       0.008784
 5254 Fit       0.007361
 5255 Fit       0.005472
 5256 Fit       0.013257
 5257 Fit       0.012452
 5258 Fit       0.011591
 5259 Fit       0.010602
 5260 Fit       0.009383
 5261 Fit       0.007825
 5262 Fit       0.005798
 5263 Fit       0.015220
 5264 Fit       0.014074
 5265 Fit       0.013076
 5266 Fit       0.012096
 5267 Fit       0.011013
 5268 Fit       0.009717
 5269 Fit       0.008093
 5270 Fit       0.006001
 5271 Fit       0.017729
 5272 Fit       0.015974
 5273 Fit       0.014676
 5274 Fit       0.013591
 5275 Fit       0.012546
 5276 Fit       0.011405
 5277 Fit       0.010051
 5278 Fit       0.008360
 5279 Fit       0.006178
 5280 Fit       0.017798
 5281 Fit       0.016093
 5282 Fit       0.014825
 5283 Fit       0.013746
 5284 Fit       0.012691
 5285 Fit       0.011534
 5286 Fit       0.010161
 5287 Fit       0.008453
 5288 Fit       0.006254
 5289 Fit       0.018722
 5290 Fit       0.016774
 5291 Fit       0.015385
 5292 Fit       0.014265
 5293 Fit       0.013226
 5294 Fit       0.012136
 5295 Fit       0.010883
 5296 Fit       0.009360
 5297 Fit       0.007436
 5298 Fit       0.017798
 5299 Fit       0.016093
 5300 Fit       0.014825
 5301 Fit       0.013746
 5302 Fit       0.012691
 5303 Fit       0.011533
 5304 Fit       0.010161
 5305 Fit       0.008453
 5306 Fit       0.006254
 5307 Fit       0.017729
 5308 Fit       0.015974
 5309 Fit       0.014676
 5310 Fit       0.013591
 5311 Fit       0.012545
 5312 Fit       0.011405
 5313 Fit       0.010051
 5314 Fit       0.008360
 5315 Fit       0.006178
 5316 Fit       0.015219
 5317 Fit       0.014074
 5318 Fit       0.013076
 5319 Fit       0.012096
 5320 Fit       0.011013
 5321 Fit       0.009717
 5322 Fit       0.008093
 5323 Fit       0.006001
 5324 Fit       0.013257
 5325 Fit       0.012451
 5326 Fit       0.011591
 5327 Fit       0.010602
 5328 Fit       0.009383
 5329 Fit       0.007825
 5330 Fit       0.005798
 5331 Fit       0.010582
 5332 Fit       0.009832
 5333 Fit       0.008784
 5334 Fit       0.007361
 5335 Fit       0.005472
 5336 Fit       0.008336
 5337 Fit       0.007418
 5338 Fit       0.005967
 5339 Fit       0.003969
 5340 Fit       0.000563
 5341 Fit       0.001418
 5342 Fit       0.001418
 5343 Fit       0.000563
 5344 Fit       0.001878
 5345 Fit       0.002472
 5346 Fit       0.002274
 5347 Fit       0.001282
 5348 Fit       0.001386
 5349 Fit       0.002749
 5350 Fit       0.003313
 5351 Fit       0.003126
 5352 Fit       0.002174
 5353 Fit       0.002242
 5354 Fit       0.003489
 5355 Fit       0.004000
 5356 Fit       0.003831
 5357 Fit       0.002965
 5358 Fit       0.003483
 5359 Fit       0.004341
 5360 Fit       0.004507
 5361 Fit       0.004003
 5362 Fit       0.002764
 5363 Fit       0.003171
 5364 Fit       0.004342
 5365 Fit       0.004820
 5366 Fit       0.004662
 5367 Fit       0.003851
 5368 Fit       0.002279
 5369 Fit       0.003689
 5370 Fit       0.004639
 5371 Fit       0.004944
 5372 Fit       0.004640
 5373 Fit       0.003689
 5374 Fit       0.003171
 5375 Fit       0.004342
 5376 Fit       0.004820
 5377 Fit       0.004662
 5378 Fit       0.003851
 5379 Fit       0.002279
 5380 Fit       0.003483
 5381 Fit       0.004341
 5382 Fit       0.004507
 5383 Fit       0.004003
 5384 Fit       0.002764
 5385 Fit       0.002242
 5386 Fit       0.003489
 5387 Fit       0.004000
 5388 Fit       0.003831
 5389 Fit       0.002965
 5390 Fit       0.001386
 5391 Fit       0.002749
 5392 Fit       0.003313
 5393 Fit       0.003126
 5394 Fit       0.002173
 5395 Fit       0.001878
 5396 Fit       0.002472
 5397 Fit       0.002274
 5398 Fit       0.001282
 5399 Fit       0.000563
 5400 Fit       0.001418
 5401 Fit       0.001418
 5402 Fit       0.000563
 5403 Fit       0.003969
 5404 Fit       0.005967
 5405 Fit       0.007418
 5406 Fit       0.008336
 5407 Fit       0.004323
 5408 Fit       0.006481
 5409 Fit       0.008124
 5410 Fit       0.009349
 5411 Fit       0.010241
 5412 Fit       0.010853
 5413 Fit       0.004560
 5414 Fit       0.006879
 5415 Fit       0.008654
 5416 Fit       0.010028
 5417 Fit       0.011118
 5418 Fit       0.012031
 5419 Fit       0.012858
 5420 Fit       0.007116
 5421 Fit       0.008953
 5422 Fit       0.010398
 5423 Fit       0.011574
 5424 Fit       0.012591
 5425 Fit       0.013565
 5426 Fit       0.014619
 5427 Fit       0.007343
 5428 Fit       0.009256
 5429 Fit       0.010761
 5430 Fit       0.011994
 5431 Fit       0.013072
 5432 Fit       0.014119
 5433 Fit       0.015285
 5434 Fit       0.016775
 5435 Fit       0.007427
 5436 Fit       0.009357
 5437 Fit       0.010881
 5438 Fit       0.012132
 5439 Fit       0.013224
 5440 Fit       0.014273
 5441 Fit       0.015422
 5442 Fit       0.016870
 5443 Fit       0.007436
 5444 Fit       0.009360
 5445 Fit       0.010883
 5446 Fit       0.012135
 5447 Fit       0.013226
 5448 Fit       0.014264
 5449 Fit       0.015385
 5450 Fit       0.016773
 5451 Fit       0.018722
 5452 Fit       0.007427
 5453 Fit       0.009357
 5454 Fit       0.010881
 5455 Fit       0.012132
 5456 Fit       0.013224
 5457 Fit       0.014273
 5458 Fit       0.015422
 5459 Fit       0.016870
 5460 Fit       0.007342
 5461 Fit       0.009256
 5462 Fit       0.010761
 5463 Fit       0.011994
 5464 Fit       0.013072
 5465 Fit       0.014119
 5466 Fit       0.015285
 5467 Fit       0.016774
 5468 Fit       0.007116
 5469 Fit       0.008953
 5470 Fit       0.010398
 5471 Fit       0.011574
 5472 Fit       0.012591
 5473 Fit       0.013565
 5474 Fit       0.014619
 5475 Fit       0.004560
 5476 Fit       0.006879
 5477 Fit       0.008654
 5478 Fit       0.010027
 5479 Fit       0.011118
 5480 Fit       0.012031
 5481 Fit       0.012858
 5482 Fit       0.004323
 5483 Fit       0.006480
 5484 Fit       0.008124
 5485 Fit       0.009349
 5486 Fit       0.010241
 5487 Fit       0.010853
 5488 Fit       0.003969
 5489 Fit       0.005967
 5490 Fit       0.007418
 5491 Fit       0.008336
 -----------------------------------------------------------------
 Leave Link  602 at Thu Nov  2 13:05:13 2023, MaxMem=   134217728 cpu:               0.4 elap:               0.4

 Test job not archived.
 1\1\GINC-LAC-381\FOpt\RHF\6-31G(d)\C6H4Cl2\RAHNAMOU\02-Nov-2023\0\\#HF
 /6-31G* SCF=tight Pop=MK iop(6/33=2) iop(6/42=6) opt\\mobley_1079207\\
 0,1\C,1.8851422669,-1.0365311105,-0.1036150461\C,2.9180092261,-1.62889
 93252,0.6029551419\C,2.8612276956,-1.6417927949,1.9843760802\C,1.80005
 7404,-1.0784746834,2.6692766527\C,0.782350787,-0.4937142769,1.93798196
 36\C,0.8103671925,-0.4648155418,0.5559137569\Cl,-0.5613745939,0.220398
 8251,2.7841324297\Cl,4.1512149364,-2.3824255977,2.8893265598\H,1.91807
 62127,-1.0202872328,-1.1776576475\H,3.7517894859,-2.0724953054,0.09360
 73462\H,1.767188826,-1.0946932171,3.7406363551\H,0.0089505609,-0.00526
 97393,0.0100664072\\Version=ES64L-G16RevC.01\State=1-A\HF=-1148.501528
 9\RMSD=3.314e-09\RMSF=3.631e-05\Dipole=0.0244329,0.0120542,-0.7968366\
 Quadrupole=-2.5541871,-2.4107592,4.9649464,0.1213996,-0.2292029,-0.107
 9163\PG=C01 [X(C6H4Cl2)]\\@


 MAN IS THE MEASURE OF ALL THINGS.
  -- PROTAGORAS (5TH CENTURY B.C.)
 Job cpu time:       0 days  0 hours  0 minutes 34.2 seconds.
 Elapsed time:       0 days  0 hours  0 minutes 33.7 seconds.
 File lengths (MBytes):  RWF=    272 Int=      0 D2E=      0 Chk=     32 Scr=     32
 Normal termination of Gaussian 16 at Thu Nov  2 13:05:14 2023.
