 Entering Gaussian System, Link 0=/opt/software/Gaussian/g16-AVX2-C.01/g16/g16
 Input=mobley_1034539.com
 Output=mobley_1034539.log
 Initial command:
 /opt/software/Gaussian/g16-AVX2-C.01/g16/l1.exe "/mnt/gs21/scratch/rahnamou/Gau-8422.inp" -scrdir="/mnt/gs21/scratch/rahnamou/"
 Entering Link 1 = /opt/software/Gaussian/g16-AVX2-C.01/g16/l1.exe PID=      8432.
  
 Copyright (c) 1988-2019, Gaussian, Inc.  All Rights Reserved.
  
 This is part of the Gaussian(R) 16 program.  It is based on
 the Gaussian(R) 09 system (copyright 2009, Gaussian, Inc.),
 the Gaussian(R) 03 system (copyright 2003, Gaussian, Inc.),
 the Gaussian(R) 98 system (copyright 1998, Gaussian, Inc.),
 the Gaussian(R) 94 system (copyright 1995, Gaussian, Inc.),
 the Gaussian 92(TM) system (copyright 1992, Gaussian, Inc.),
 the Gaussian 90(TM) system (copyright 1990, Gaussian, Inc.),
 the Gaussian 88(TM) system (copyright 1988, Gaussian, Inc.),
 the Gaussian 86(TM) system (copyright 1986, Carnegie Mellon
 University), and the Gaussian 82(TM) system (copyright 1983,
 Carnegie Mellon University). Gaussian is a federally registered
 trademark of Gaussian, Inc.
  
 This software contains proprietary and confidential information,
 including trade secrets, belonging to Gaussian, Inc.
  
 This software is provided under written license and may be
 used, copied, transmitted, or stored only in accord with that
 written license.
  
 The following legend is applicable only to US Government
 contracts under FAR:
  
                    RESTRICTED RIGHTS LEGEND
  
 Use, reproduction and disclosure by the US Government is
 subject to restrictions as set forth in subparagraphs (a)
 and (c) of the Commercial Computer Software - Restricted
 Rights clause in FAR 52.227-19.
  
 Gaussian, Inc.
 340 Quinnipiac St., Bldg. 40, Wallingford CT 06492
  
  
 ---------------------------------------------------------------
 Warning -- This program may not be used in any manner that
 competes with the business of Gaussian, Inc. or will provide
 assistance to any competitor of Gaussian, Inc.  The licensee
 of this program is prohibited from giving any competitor of
 Gaussian, Inc. access to this program.  By using this program,
 the user acknowledges that Gaussian, Inc. is engaged in the
 business of creating and licensing software in the field of
 computational chemistry and represents and warrants to the
 licensee that it is not a competitor of Gaussian, Inc. and that
 it will not use this program in any manner prohibited above.
 ---------------------------------------------------------------
  

 Cite this work as:
 Gaussian 16, Revision C.01,
 M. J. Frisch, G. W. Trucks, H. B. Schlegel, G. E. Scuseria, 
 M. A. Robb, J. R. Cheeseman, G. Scalmani, V. Barone, 
 G. A. Petersson, H. Nakatsuji, X. Li, M. Caricato, A. V. Marenich, 
 J. Bloino, B. G. Janesko, R. Gomperts, B. Mennucci, H. P. Hratchian, 
 J. V. Ortiz, A. F. Izmaylov, J. L. Sonnenberg, D. Williams-Young, 
 F. Ding, F. Lipparini, F. Egidi, J. Goings, B. Peng, A. Petrone, 
 T. Henderson, D. Ranasinghe, V. G. Zakrzewski, J. Gao, N. Rega, 
 G. Zheng, W. Liang, M. Hada, M. Ehara, K. Toyota, R. Fukuda, 
 J. Hasegawa, M. Ishida, T. Nakajima, Y. Honda, O. Kitao, H. Nakai, 
 T. Vreven, K. Throssell, J. A. Montgomery, Jr., J. E. Peralta, 
 F. Ogliaro, M. J. Bearpark, J. J. Heyd, E. N. Brothers, K. N. Kudin, 
 V. N. Staroverov, T. A. Keith, R. Kobayashi, J. Normand, 
 K. Raghavachari, A. P. Rendell, J. C. Burant, S. S. Iyengar, 
 J. Tomasi, M. Cossi, J. M. Millam, M. Klene, C. Adamo, R. Cammi, 
 J. W. Ochterski, R. L. Martin, K. Morokuma, O. Farkas, 
 J. B. Foresman, and D. J. Fox, Gaussian, Inc., Wallingford CT, 2019.
 
 ******************************************
 Gaussian 16:  ES64L-G16RevC.01  3-Jul-2019
                 2-Nov-2023 
 ******************************************
 %chk=mobley_1034539.chk
 %mem=1GB
 %NProcShared=1
 Will use up to    1 processors via shared memory.
 -------------------------------------------------------
 #HF/6-31G* SCF=tight Pop=MK iop(6/33=2) iop(6/42=6) opt
 -------------------------------------------------------
 1/18=20,19=15,38=1/1,3;
 2/9=110,12=2,17=6,18=5,40=1/2;
 3/5=1,6=6,7=1,11=9,25=1,30=1,71=1/1,2,3;
 4//1;
 5/5=2,32=2,38=5/2;
 6/7=2,8=2,9=2,10=2,15=8,20=1,28=1,33=2,42=6/1,2;
 7//1,2,3,16;
 1/18=20,19=15/3(2);
 2/9=110/2;
 99//99;
 2/9=110/2;
 3/5=1,6=6,7=1,11=9,25=1,30=1,71=1/1,2,3;
 4/5=5,16=3,69=1/1;
 5/5=2,32=2,38=5/2;
 7//1,2,3,16;
 1/18=20,19=15/3(-5);
 2/9=110/2;
 6/7=2,8=2,9=2,10=2,15=8,19=2,20=1,28=1,33=2,42=6/1,2;
 99/9=1/99;
 --------------
 mobley_1034539
 --------------
 Symbolic Z-matrix:
 Charge =  0 Multiplicity = 1
 C                     1.885    -1.036    -0.112 
 C                     2.921    -1.631     0.608 
 C                     2.878    -1.652     2.002 
 C                     1.8      -1.079     2.676 
 C                     0.764    -0.484     1.955 
 C                     0.807    -0.463     0.561 
 C                    -0.267     0.154    -0.187 
 C                    -0.152     1.511    -0.488 
 C                    -1.16      2.154    -1.207 
 C                    -2.282     1.44     -1.626 
 C                    -2.397     0.082    -1.326 
 C                    -1.389    -0.56     -0.606 
 CL                   -1.514    -2.253    -0.216 
 CL                   -3.798    -0.812    -1.847 
 CL                   -3.531     2.255    -2.523 
 CL                   -0.943     3.838    -1.543 
 CL                    1.692    -1.07      4.401 
 CL                    4.194    -2.399     2.838 
 H                     1.932    -1.028    -1.199 
 H                     3.753    -2.075     0.067 
 H                    -0.079    -0.035     2.478 
 H                     0.725     2.068    -0.163 
 

 GradGradGradGradGradGradGradGradGradGradGradGradGradGradGradGradGradGrad
 Berny optimization.
 Initialization pass.
                           ----------------------------
                           !    Initial Parameters    !
                           ! (Angstroms and Degrees)  !
 --------------------------                            --------------------------
 ! Name  Definition              Value          Derivative Info.                !
 --------------------------------------------------------------------------------
 ! R1    R(1,2)                  1.3949         estimate D2E/DX2                !
 ! R2    R(1,6)                  1.394          estimate D2E/DX2                !
 ! R3    R(1,19)                 1.088          estimate D2E/DX2                !
 ! R4    R(2,3)                  1.3948         estimate D2E/DX2                !
 ! R5    R(2,20)                 1.0872         estimate D2E/DX2                !
 ! R6    R(3,4)                  1.3945         estimate D2E/DX2                !
 ! R7    R(3,18)                 1.7288         estimate D2E/DX2                !
 ! R8    R(4,5)                  1.3954         estimate D2E/DX2                !
 ! R9    R(4,17)                 1.7284         estimate D2E/DX2                !
 ! R10   R(5,6)                  1.3948         estimate D2E/DX2                !
 ! R11   R(5,21)                 1.0889         estimate D2E/DX2                !
 ! R12   R(6,7)                  1.447          estimate D2E/DX2                !
 ! R13   R(7,8)                  1.3947         estimate D2E/DX2                !
 ! R14   R(7,12)                 1.3944         estimate D2E/DX2                !
 ! R15   R(8,9)                  1.3952         estimate D2E/DX2                !
 ! R16   R(8,22)                 1.0886         estimate D2E/DX2                !
 ! R17   R(9,10)                 1.3944         estimate D2E/DX2                !
 ! R18   R(9,16)                 1.7308         estimate D2E/DX2                !
 ! R19   R(10,11)                1.3955         estimate D2E/DX2                !
 ! R20   R(10,15)                1.7404         estimate D2E/DX2                !
 ! R21   R(11,12)                1.3952         estimate D2E/DX2                !
 ! R22   R(11,14)                1.7417         estimate D2E/DX2                !
 ! R23   R(12,13)                1.7418         estimate D2E/DX2                !
 ! A1    A(2,1,6)              120.0312         estimate D2E/DX2                !
 ! A2    A(2,1,19)             119.1257         estimate D2E/DX2                !
 ! A3    A(6,1,19)             120.843          estimate D2E/DX2                !
 ! A4    A(1,2,3)              119.9597         estimate D2E/DX2                !
 ! A5    A(1,2,20)             119.0594         estimate D2E/DX2                !
 ! A6    A(3,2,20)             120.9808         estimate D2E/DX2                !
 ! A7    A(2,3,4)              120.045          estimate D2E/DX2                !
 ! A8    A(2,3,18)             117.796          estimate D2E/DX2                !
 ! A9    A(4,3,18)             122.1587         estimate D2E/DX2                !
 ! A10   A(3,4,5)              119.9601         estimate D2E/DX2                !
 ! A11   A(3,4,17)             122.1956         estimate D2E/DX2                !
 ! A12   A(5,4,17)             117.844          estimate D2E/DX2                !
 ! A13   A(4,5,6)              119.9949         estimate D2E/DX2                !
 ! A14   A(4,5,21)             120.1598         estimate D2E/DX2                !
 ! A15   A(6,5,21)             119.8454         estimate D2E/DX2                !
 ! A16   A(1,6,5)              120.0091         estimate D2E/DX2                !
 ! A17   A(1,6,7)              119.9789         estimate D2E/DX2                !
 ! A18   A(5,6,7)              120.0121         estimate D2E/DX2                !
 ! A19   A(6,7,8)              117.7258         estimate D2E/DX2                !
 ! A20   A(6,7,12)             122.2935         estimate D2E/DX2                !
 ! A21   A(8,7,12)             119.9806         estimate D2E/DX2                !
 ! A22   A(7,8,9)              120.0038         estimate D2E/DX2                !
 ! A23   A(7,8,22)             119.9888         estimate D2E/DX2                !
 ! A24   A(9,8,22)             120.0074         estimate D2E/DX2                !
 ! A25   A(8,9,10)             120.0155         estimate D2E/DX2                !
 ! A26   A(8,9,16)             117.2495         estimate D2E/DX2                !
 ! A27   A(10,9,16)            122.7348         estimate D2E/DX2                !
 ! A28   A(9,10,11)            120.0012         estimate D2E/DX2                !
 ! A29   A(9,10,15)            119.5096         estimate D2E/DX2                !
 ! A30   A(11,10,15)           120.4892         estimate D2E/DX2                !
 ! A31   A(10,11,12)           119.946          estimate D2E/DX2                !
 ! A32   A(10,11,14)           120.0984         estimate D2E/DX2                !
 ! A33   A(12,11,14)           119.9555         estimate D2E/DX2                !
 ! A34   A(7,12,11)            120.0528         estimate D2E/DX2                !
 ! A35   A(7,12,13)            119.2205         estimate D2E/DX2                !
 ! A36   A(11,12,13)           120.7266         estimate D2E/DX2                !
 ! D1    D(6,1,2,3)             -0.0199         estimate D2E/DX2                !
 ! D2    D(6,1,2,20)           179.8703         estimate D2E/DX2                !
 ! D3    D(19,1,2,3)          -179.9504         estimate D2E/DX2                !
 ! D4    D(19,1,2,20)           -0.0602         estimate D2E/DX2                !
 ! D5    D(2,1,6,5)              0.02           estimate D2E/DX2                !
 ! D6    D(2,1,6,7)            179.995          estimate D2E/DX2                !
 ! D7    D(19,1,6,5)           179.9492         estimate D2E/DX2                !
 ! D8    D(19,1,6,7)            -0.0757         estimate D2E/DX2                !
 ! D9    D(1,2,3,4)              0.0186         estimate D2E/DX2                !
 ! D10   D(1,2,3,18)          -179.7938         estimate D2E/DX2                !
 ! D11   D(20,2,3,4)          -179.8695         estimate D2E/DX2                !
 ! D12   D(20,2,3,18)            0.3181         estimate D2E/DX2                !
 ! D13   D(2,3,4,5)             -0.0173         estimate D2E/DX2                !
 ! D14   D(2,3,4,17)          -179.8366         estimate D2E/DX2                !
 ! D15   D(18,3,4,5)           179.7867         estimate D2E/DX2                !
 ! D16   D(18,3,4,17)           -0.0326         estimate D2E/DX2                !
 ! D17   D(3,4,5,6)              0.0173         estimate D2E/DX2                !
 ! D18   D(3,4,5,21)          -179.9585         estimate D2E/DX2                !
 ! D19   D(17,4,5,6)           179.8444         estimate D2E/DX2                !
 ! D20   D(17,4,5,21)           -0.1313         estimate D2E/DX2                !
 ! D21   D(4,5,6,1)             -0.0186         estimate D2E/DX2                !
 ! D22   D(4,5,6,7)           -179.9937         estimate D2E/DX2                !
 ! D23   D(21,5,6,1)           179.9572         estimate D2E/DX2                !
 ! D24   D(21,5,6,7)            -0.0179         estimate D2E/DX2                !
 ! D25   D(1,6,7,8)            -89.9624         estimate D2E/DX2                !
 ! D26   D(1,6,7,12)            89.9797         estimate D2E/DX2                !
 ! D27   D(5,6,7,8)             90.0127         estimate D2E/DX2                !
 ! D28   D(5,6,7,12)           -90.0452         estimate D2E/DX2                !
 ! D29   D(6,7,8,9)           -179.9939         estimate D2E/DX2                !
 ! D30   D(6,7,8,22)             0.0889         estimate D2E/DX2                !
 ! D31   D(12,7,8,9)             0.0626         estimate D2E/DX2                !
 ! D32   D(12,7,8,22)         -179.8545         estimate D2E/DX2                !
 ! D33   D(6,7,12,11)         -179.952          estimate D2E/DX2                !
 ! D34   D(6,7,12,13)            0.2017         estimate D2E/DX2                !
 ! D35   D(8,7,12,11)           -0.0112         estimate D2E/DX2                !
 ! D36   D(8,7,12,13)         -179.8575         estimate D2E/DX2                !
 ! D37   D(7,8,9,10)            -0.0626         estimate D2E/DX2                !
 ! D38   D(7,8,9,16)          -179.9119         estimate D2E/DX2                !
 ! D39   D(22,8,9,10)          179.8545         estimate D2E/DX2                !
 ! D40   D(22,8,9,16)            0.0053         estimate D2E/DX2                !
 ! D41   D(8,9,10,11)            0.0112         estimate D2E/DX2                !
 ! D42   D(8,9,10,15)         -179.9604         estimate D2E/DX2                !
 ! D43   D(16,9,10,11)         179.8519         estimate D2E/DX2                !
 ! D44   D(16,9,10,15)          -0.1197         estimate D2E/DX2                !
 ! D45   D(9,10,11,12)           0.0402         estimate D2E/DX2                !
 ! D46   D(9,10,11,14)         179.9501         estimate D2E/DX2                !
 ! D47   D(15,10,11,12)       -179.9885         estimate D2E/DX2                !
 ! D48   D(15,10,11,14)         -0.0786         estimate D2E/DX2                !
 ! D49   D(10,11,12,7)          -0.0402         estimate D2E/DX2                !
 ! D50   D(10,11,12,13)        179.8038         estimate D2E/DX2                !
 ! D51   D(14,11,12,7)        -179.9502         estimate D2E/DX2                !
 ! D52   D(14,11,12,13)         -0.1063         estimate D2E/DX2                !
 --------------------------------------------------------------------------------
 Trust Radius=3.00D-01 FncErr=1.00D-07 GrdErr=1.00D-07 EigMax=2.50D+02 EigMin=1.00D-04
 Number of steps in this run=    121 maximum allowed number of steps=    132.
 GradGradGradGradGradGradGradGradGradGradGradGradGradGradGradGradGradGrad

                          Input orientation:                          
 ---------------------------------------------------------------------
 Center     Atomic      Atomic             Coordinates (Angstroms)
 Number     Number       Type             X           Y           Z
 ---------------------------------------------------------------------
      1          6           0        1.885000   -1.036000   -0.112000
      2          6           0        2.921000   -1.631000    0.608000
      3          6           0        2.878000   -1.652000    2.002000
      4          6           0        1.800000   -1.079000    2.676000
      5          6           0        0.764000   -0.484000    1.955000
      6          6           0        0.807000   -0.463000    0.561000
      7          6           0       -0.267000    0.154000   -0.187000
      8          6           0       -0.152000    1.511000   -0.488000
      9          6           0       -1.160000    2.154000   -1.207000
     10          6           0       -2.282000    1.440000   -1.626000
     11          6           0       -2.397000    0.082000   -1.326000
     12          6           0       -1.389000   -0.560000   -0.606000
     13         17           0       -1.514000   -2.253000   -0.216000
     14         17           0       -3.798000   -0.812000   -1.847000
     15         17           0       -3.531000    2.255000   -2.523000
     16         17           0       -0.943000    3.838000   -1.543000
     17         17           0        1.692000   -1.070000    4.401000
     18         17           0        4.194000   -2.399000    2.838000
     19          1           0        1.932000   -1.028000   -1.199000
     20          1           0        3.753000   -2.075000    0.067000
     21          1           0       -0.079000   -0.035000    2.478000
     22          1           0        0.725000    2.068000   -0.163000
 ---------------------------------------------------------------------
                    Distance matrix (angstroms):
                    1          2          3          4          5
     1  C    0.000000
     2  C    1.394891   0.000000
     3  C    2.415471   1.394821   0.000000
     4  C    2.789627   2.416189   1.394521   0.000000
     5  C    2.415333   2.789743   2.415663   1.395407   0.000000
     6  C    1.394038   2.415663   2.789129   2.416346   1.394821
     7  C    2.460250   3.739197   4.236081   3.740260   2.461335
     8  C    3.282979   4.529537   5.038409   4.530927   3.284407
     9  C    4.543914   5.854486   6.410052   5.855901   4.545224
    10  C    5.078057   6.441507   7.024845   6.443236   5.079710
    11  C    4.589035   5.912347   6.473636   5.914282   4.590995
    12  C    3.345099   4.604013   5.118732   4.605497   3.346626
    13  Cl   3.611801   4.553579   4.956853   4.552421   3.609970
    14  Cl   5.946166   7.200191   7.751734   7.201835   5.947658
    15  Cl   6.780609   8.156743   8.764448   8.158720   6.782450
    16  Cl   5.813882   7.033296   7.570150   7.035688   5.816316
    17  Cl   4.517253   4.026414   2.738708   1.728401   2.680951
    18  Cl   3.986446   2.680159   1.728803   2.738591   4.026390
    19  H    1.088045   2.146387   3.395687   3.877583   3.407033
    20  H    2.144991   1.087217   2.165359   3.407801   3.876847
    21  H    3.401088   3.878675   3.403691   2.158653   1.088935
    22  H    3.314064   4.370293   4.812591   4.372546   3.316647
                    6          7          8          9         10
     6  C    0.000000
     7  C    1.446952   0.000000
     8  C    2.432439   1.394731   0.000000
     9  C    3.720699   2.416164   1.395161   0.000000
    10  C    4.236307   2.790115   2.415985   1.394360   0.000000
    11  C    3.758113   2.416486   2.790038   2.416095   1.395489
    12  C    2.488717   1.394360   2.415188   2.789164   2.416164
    13  Cl   3.032304   2.710996   4.012072   4.530899   4.026931
    14  Cl   5.208291   4.019542   4.531724   4.020672   2.723711
    15  Cl   5.976355   4.530430   4.014026   2.713613   1.740355
    16  Cl   5.097835   3.983412   2.674628   1.730850   2.747765
    17  Cl   3.987139   5.136692   5.827883   7.069494   7.643135
    18  Cl   4.517144   5.963971   6.725927   8.109078   8.752359
    19  H    2.163897   2.693858   3.360818   4.436852   4.902158
    20  H    3.394333   4.603624   5.330708   6.606443   7.186285
    21  H    2.154778   2.678300   3.345534   4.420351   4.885862
    22  H    2.633792   2.155930   1.088578   2.156515   3.402470
                   11         12         13         14         15
    11  C    0.000000
    12  C    1.395216   0.000000
    13  Cl   2.732035   1.741831   0.000000
    14  Cl   1.741688   2.721556   3.154885   0.000000
    15  Cl   2.727764   4.023342   5.450927   3.151944   0.000000
    16  Cl   4.033453   4.518771   6.259972   5.464974   3.188108
    17  Cl   7.130607   5.901077   5.744094   8.321308   9.288548
    18  Cl   8.181414   6.812705   6.475299   9.398929  10.491695
    19  H    4.470847   3.405835   3.787061   5.770568   6.509642
    20  H    6.664503   5.402621   5.277600   7.891525   8.860793
    21  H    4.456145   3.391575   3.773113   5.756763   6.493874
    22  H    3.878614   3.401710   4.866926   5.620301   4.870124
                   16         17         18         19         20
    16  Cl   0.000000
    17  Cl   8.146338   0.000000
    18  Cl   9.191414   3.235616   0.000000
    19  H    5.662324   5.605298   4.826350   0.000000
    20  H    7.720627   4.903193   2.824517   2.452551   0.000000
    21  H    5.649342   2.811689   4.896593   4.307029   4.965757
    22  H    2.796341   5.622475   6.402660   3.480713   5.136743
                   21         22
    21  H    0.000000
    22  H    3.470433   0.000000
 Stoichiometry    C12H4Cl6
 Framework group  C1[X(C12H4Cl6)]
 Deg. of freedom    60
 Full point group                 C1      NOp   1
 Largest Abelian subgroup         C1      NOp   1
 Largest concise Abelian subgroup C1      NOp   1
                         Standard orientation:                         
 ---------------------------------------------------------------------
 Center     Atomic      Atomic             Coordinates (Angstroms)
 Number     Number       Type             X           Y           Z
 ---------------------------------------------------------------------
      1          6           0       -1.663921   -0.144530   -1.617051
      2          6           0       -3.052645   -0.147194   -1.748045
      3          6           0       -3.859465   -0.190151   -0.611066
      4          6           0       -3.278662   -0.230030    0.656123
      5          6           0       -1.889344   -0.227307    0.786314
      6          6           0       -1.082524   -0.184350   -0.350665
      7          6           0        0.358154   -0.181649   -0.216101
      8          6           0        1.010506   -1.414285   -0.198208
      9          6           0        2.398790   -1.467109   -0.070342
     10          6           0        3.134624   -0.287707    0.038282
     11          6           0        2.482459    0.945870    0.019349
     12          6           0        1.093988    0.997754   -0.107477
     13         17           0        0.258704    2.526099   -0.128307
     14         17           0        3.398966    2.420582    0.156158
     15         17           0        4.865899   -0.368909    0.196168
     16         17           0        3.134529   -3.033760   -0.058704
     17         17           0       -4.224799   -0.288378    2.101388
     18         17           0       -5.573240   -0.196704   -0.838428
     19          1           0       -1.047542   -0.109956   -2.513000
     20          1           0       -3.489266   -0.113647   -2.743172
     21          1           0       -1.432364   -0.259058    1.774211
     22          1           0        0.436393   -2.335045   -0.285383
 ---------------------------------------------------------------------
 Rotational constants (GHZ):           0.4481204           0.1151390           0.1022325
 Standard basis: 6-31G(d) (6D, 7F)
 There are   302 symmetry adapted cartesian basis functions of A   symmetry.
 There are   302 symmetry adapted basis functions of A   symmetry.
   302 basis functions,   664 primitive gaussians,   302 cartesian basis functions
    89 alpha electrons       89 beta electrons
       nuclear repulsion energy      1976.0846527979 Hartrees.
 NAtoms=   22 NActive=   22 NUniq=   22 SFac= 1.00D+00 NAtFMM=   60 NAOKFM=F Big=F
 Integral buffers will be    131072 words long.
 Raffenetti 1 integral format.
 Two-electron integral symmetry is turned on.
 One-electron integrals computed using PRISM.
 NBasis=   302 RedAO= T EigKep=  3.76D-04  NBF=   302
 NBsUse=   302 1.00D-06 EigRej= -1.00D+00 NBFU=   302
 ExpMin= 1.43D-01 ExpMax= 2.52D+04 ExpMxC= 3.78D+03 IAcc=3 IRadAn=         5 AccDes= 0.00D+00
 Harris functional with IExCor=  205 and IRadAn=       5 diagonalized for initial guess.
 HarFok:  IExCor=  205 AccDes= 0.00D+00 IRadAn=         5 IDoV= 1 UseB2=F ITyADJ=14
 ICtDFT=  3500011 ScaDFX=  1.000000  1.000000  1.000000  1.000000
 FoFCou: FMM=F IPFlag=           0 FMFlag=      100000 FMFlg1=           0
         NFxFlg=           0 DoJE=T BraDBF=F KetDBF=T FulRan=T
         wScrn=  0.000000 ICntrl=       500 IOpCl=  0 I1Cent=   200000004 NGrid=           0
         NMat0=    1 NMatS0=      1 NMatT0=    0 NMatD0=    1 NMtDS0=    0 NMtDT0=    0
 Petite list used in FoFCou.
 Requested convergence on RMS density matrix=1.00D-08 within 128 cycles.
 Requested convergence on MAX density matrix=1.00D-06.
 Requested convergence on             energy=1.00D-06.
 No special actions if energy rises.
 Integral accuracy reduced to 1.0D-05 until final iterations.
 Initial convergence to 1.0D-05 achieved.  Increase integral accuracy.
 SCF Done:  E(RHF) =  -3213.61107875     A.U. after   15 cycles
            NFock= 15  Conv=0.92D-08     -V/T= 2.0006
 SCF density gives NOpUse=  1 NOpAll=  1.

 **********************************************************************

            Population analysis using the SCF Density.

 **********************************************************************

 Orbital symmetries:
 BldTbl:  Degeneracy threshold= 1.00D-02
       Occupied  (A) (A) (A) (A) (A) (A) (A) (A) (A) (A) (A) (A)
                 (A) (A) (A) (A) (A) (A) (A) (A) (A) (A) (A) (A)
                 (A) (A) (A) (A) (A) (A) (A) (A) (A) (A) (A) (A)
                 (A) (A) (A) (A) (A) (A) (A) (A) (A) (A) (A) (A)
                 (A) (A) (A) (A) (A) (A) (A) (A) (A) (A) (A) (A)
                 (A) (A) (A) (A) (A) (A) (A) (A) (A) (A) (A) (A)
                 (A) (A) (A) (A) (A) (A) (A) (A) (A) (A) (A) (A)
                 (A) (A) (A) (A) (A)
       Virtual   (A) (A) (A) (A) (A) (A) (A) (A) (A) (A) (A) (A)
                 (A) (A) (A) (A) (A) (A) (A) (A) (A) (A) (A) (A)
                 (A) (A) (A) (A) (A) (A) (A) (A) (A) (A) (A) (A)
                 (A) (A) (A) (A) (A) (A) (A) (A) (A) (A) (A) (A)
                 (A) (A) (A) (A) (A) (A) (A) (A) (A) (A) (A) (A)
                 (A) (A) (A) (A) (A) (A) (A) (A) (A) (A) (A) (A)
                 (A) (A) (A) (A) (A) (A) (A) (A) (A) (A) (A) (A)
                 (A) (A) (A) (A) (A) (A) (A) (A) (A) (A) (A) (A)
                 (A) (A) (A) (A) (A) (A) (A) (A) (A) (A) (A) (A)
                 (A) (A) (A) (A) (A) (A) (A) (A) (A) (A) (A) (A)
                 (A) (A) (A) (A) (A) (A) (A) (A) (A) (A) (A) (A)
                 (A) (A) (A) (A) (A) (A) (A) (A) (A) (A) (A) (A)
                 (A) (A) (A) (A) (A) (A) (A) (A) (A) (A) (A) (A)
                 (A) (A) (A) (A) (A) (A) (A) (A) (A) (A) (A) (A)
                 (A) (A) (A) (A) (A) (A) (A) (A) (A) (A) (A) (A)
                 (A) (A) (A) (A) (A) (A) (A) (A) (A) (A) (A) (A)
                 (A) (A) (A) (A) (A) (A) (A) (A) (A) (A) (A) (A)
                 (A) (A) (A) (A) (A) (A) (A) (A) (A)
 The electronic state is 1-A.
 Alpha  occ. eigenvalues -- -104.85545-104.85444-104.85375-104.85368-104.84428
 Alpha  occ. eigenvalues -- -104.84354 -11.35539 -11.35318 -11.34850 -11.34804
 Alpha  occ. eigenvalues --  -11.33354 -11.33213 -11.29844 -11.29167 -11.28166
 Alpha  occ. eigenvalues --  -11.27911 -11.27768 -11.27385 -10.58866 -10.58732
 Alpha  occ. eigenvalues --  -10.58667 -10.58660 -10.57764 -10.57691  -8.05810
 Alpha  occ. eigenvalues --   -8.05673  -8.05607  -8.05603  -8.05454  -8.05451
 Alpha  occ. eigenvalues --   -8.05315  -8.05308  -8.05256  -8.05250  -8.05244
 Alpha  occ. eigenvalues --   -8.05239  -8.04709  -8.04636  -8.04357  -8.04355
 Alpha  occ. eigenvalues --   -8.04284  -8.04283  -1.26736  -1.23379  -1.20321
 Alpha  occ. eigenvalues --   -1.18373  -1.15205  -1.14846  -1.13437  -1.11495
 Alpha  occ. eigenvalues --   -1.05405  -1.02722  -1.00870  -0.98654  -0.88474
 Alpha  occ. eigenvalues --   -0.86463  -0.85281  -0.81033  -0.73370  -0.72265
 Alpha  occ. eigenvalues --   -0.69541  -0.68834  -0.66499  -0.63928  -0.61835
 Alpha  occ. eigenvalues --   -0.61573  -0.61351  -0.60916  -0.58529  -0.57728
 Alpha  occ. eigenvalues --   -0.56440  -0.55021  -0.54263  -0.54114  -0.51529
 Alpha  occ. eigenvalues --   -0.49926  -0.49896  -0.49338  -0.49108  -0.48077
 Alpha  occ. eigenvalues --   -0.47862  -0.47187  -0.46425  -0.45754  -0.45071
 Alpha  occ. eigenvalues --   -0.36844  -0.36242  -0.35751  -0.35089
 Alpha virt. eigenvalues --    0.07692   0.08502   0.09969   0.10808   0.12117
 Alpha virt. eigenvalues --    0.16283   0.19207   0.22415   0.22886   0.23409
 Alpha virt. eigenvalues --    0.25751   0.27753   0.28105   0.29449   0.31279
 Alpha virt. eigenvalues --    0.31473   0.38479   0.38667   0.39498   0.41179
 Alpha virt. eigenvalues --    0.41757   0.44370   0.45083   0.47872   0.47996
 Alpha virt. eigenvalues --    0.49394   0.51085   0.51634   0.52777   0.52953
 Alpha virt. eigenvalues --    0.53511   0.56278   0.57645   0.58853   0.59230
 Alpha virt. eigenvalues --    0.59598   0.59801   0.60265   0.60571   0.61431
 Alpha virt. eigenvalues --    0.61693   0.62686   0.63261   0.64509   0.65255
 Alpha virt. eigenvalues --    0.65509   0.67028   0.68620   0.68841   0.70103
 Alpha virt. eigenvalues --    0.70592   0.71873   0.72127   0.72539   0.73270
 Alpha virt. eigenvalues --    0.76818   0.77632   0.78660   0.79639   0.80341
 Alpha virt. eigenvalues --    0.80591   0.81406   0.83198   0.84324   0.86108
 Alpha virt. eigenvalues --    0.87123   0.87436   0.91903   0.92000   0.92688
 Alpha virt. eigenvalues --    0.93599   0.95404   0.95542   0.97060   0.97913
 Alpha virt. eigenvalues --    0.99810   1.01184   1.02751   1.04410   1.05308
 Alpha virt. eigenvalues --    1.06036   1.06240   1.07660   1.08341   1.09396
 Alpha virt. eigenvalues --    1.10692   1.11208   1.11517   1.11817   1.12215
 Alpha virt. eigenvalues --    1.12401   1.12497   1.12638   1.13211   1.13430
 Alpha virt. eigenvalues --    1.14275   1.15028   1.15600   1.18450   1.19606
 Alpha virt. eigenvalues --    1.20366   1.20422   1.22110   1.24198   1.24329
 Alpha virt. eigenvalues --    1.25720   1.26199   1.28323   1.29855   1.30339
 Alpha virt. eigenvalues --    1.32390   1.33258   1.33799   1.36959   1.39078
 Alpha virt. eigenvalues --    1.39932   1.40593   1.41777   1.42046   1.42780
 Alpha virt. eigenvalues --    1.42958   1.46086   1.46769   1.48792   1.54438
 Alpha virt. eigenvalues --    1.56433   1.57090   1.60678   1.63864   1.66666
 Alpha virt. eigenvalues --    1.67327   1.69652   1.71164   1.72836   1.73577
 Alpha virt. eigenvalues --    1.74691   1.75142   1.77827   1.79106   1.80015
 Alpha virt. eigenvalues --    1.81983   1.82057   1.86513   1.97478   1.99165
 Alpha virt. eigenvalues --    2.02526   2.05748   2.06024   2.07657   2.07945
 Alpha virt. eigenvalues --    2.09932   2.12557   2.22066   2.24386   2.24942
 Alpha virt. eigenvalues --    2.27315   2.32343   2.32477   2.34948   2.36705
 Alpha virt. eigenvalues --    2.39553   2.39648   2.40758   2.42054   2.42276
 Alpha virt. eigenvalues --    2.46600   2.48916   2.50187   2.51286   2.56393
 Alpha virt. eigenvalues --    2.59218   2.61479   2.62297   2.63360   2.66256
 Alpha virt. eigenvalues --    2.80717   2.84401   2.86963   2.88183   2.89488
 Alpha virt. eigenvalues --    2.98093   3.00669   3.01723   3.02746   3.03151
 Alpha virt. eigenvalues --    3.06200   3.09943   3.11233   3.13388   3.14446
 Alpha virt. eigenvalues --    3.32169   3.42352   3.43121   3.63551   3.72524
 Alpha virt. eigenvalues --    4.38846   4.42498   4.42845   4.49022   4.50297
 Alpha virt. eigenvalues --    4.55319   4.61980   4.66514   4.67914   4.68919
 Alpha virt. eigenvalues --    4.71056   4.73451   4.76559   4.79934   4.82554
 Alpha virt. eigenvalues --    4.85196   5.04786   5.15782
          Condensed to atoms (all electrons):
               1          2          3          4          5          6
     1  C    4.897397   0.528184  -0.044509  -0.031378  -0.034356   0.555503
     2  C    0.528184   4.963543   0.523156  -0.050149  -0.035817  -0.041856
     3  C   -0.044509   0.523156   5.107667   0.479610  -0.055289  -0.025947
     4  C   -0.031378  -0.050149   0.479610   5.116970   0.510818  -0.042118
     5  C   -0.034356  -0.035817  -0.055289   0.510818   4.967102   0.546799
     6  C    0.555503  -0.041856  -0.025947  -0.042118   0.546799   4.819219
     7  C   -0.046418   0.004706   0.000011   0.003767  -0.045452   0.364960
     8  C   -0.001286   0.000049   0.000020   0.000042  -0.001201  -0.049517
     9  C    0.000029   0.000001  -0.000000   0.000001   0.000029   0.004431
    10  C    0.000015  -0.000000   0.000000  -0.000000   0.000015   0.000055
    11  C   -0.000085   0.000001  -0.000000   0.000002  -0.000086   0.004243
    12  C   -0.002306   0.000025   0.000029   0.000023  -0.002268  -0.047023
    13  Cl  -0.001766  -0.000124   0.000033  -0.000140  -0.001949   0.003150
    14  Cl  -0.000001  -0.000000   0.000000  -0.000000  -0.000001  -0.000047
    15  Cl  -0.000000   0.000000   0.000000   0.000000  -0.000000   0.000003
    16  Cl  -0.000003  -0.000000   0.000000  -0.000000  -0.000003  -0.000147
    17  Cl   0.000174   0.001793  -0.067788   0.230860  -0.072574   0.003370
    18  Cl   0.003034  -0.073670   0.232196  -0.068050   0.001738   0.000199
    19  H    0.379577  -0.026136   0.002407   0.000102   0.002408  -0.032099
    20  H   -0.023688   0.380829  -0.027922   0.001713   0.000346   0.001841
    21  H    0.002336   0.000060   0.002014  -0.026432   0.380042  -0.030597
    22  H    0.000982  -0.000042  -0.000010  -0.000056   0.001001  -0.000300
               7          8          9         10         11         12
     1  C   -0.046418  -0.001286   0.000029   0.000015  -0.000085  -0.002306
     2  C    0.004706   0.000049   0.000001  -0.000000   0.000001   0.000025
     3  C    0.000011   0.000020  -0.000000   0.000000  -0.000000   0.000029
     4  C    0.003767   0.000042   0.000001  -0.000000   0.000002   0.000023
     5  C   -0.045452  -0.001201   0.000029   0.000015  -0.000086  -0.002268
     6  C    0.364960  -0.049517   0.004431   0.000055   0.004243  -0.047023
     7  C    4.909872   0.537607  -0.039582  -0.023922  -0.060162   0.490172
     8  C    0.537607   4.992877   0.496674  -0.057029  -0.032893  -0.036423
     9  C   -0.039582   0.496674   5.155680   0.461702  -0.057755  -0.034121
    10  C   -0.023922  -0.057029   0.461702   5.218456   0.453270  -0.064369
    11  C   -0.060162  -0.032893  -0.057755   0.453270   5.245787   0.441526
    12  C    0.490172  -0.036423  -0.034121  -0.064369   0.441526   5.203407
    13  Cl  -0.082705   0.002204   0.000066   0.001554  -0.074588   0.254020
    14  Cl   0.001666   0.000179   0.001610  -0.074393   0.264301  -0.074469
    15  Cl   0.000132   0.001939  -0.076398   0.262450  -0.074149   0.001616
    16  Cl   0.003494  -0.073620   0.236357  -0.066421   0.001606   0.000121
    17  Cl  -0.000130  -0.000003  -0.000000   0.000000  -0.000000  -0.000003
    18  Cl   0.000006  -0.000000   0.000000  -0.000000   0.000000  -0.000000
    19  H    0.000287   0.000910  -0.000040  -0.000007  -0.000041   0.000743
    20  H   -0.000141  -0.000001  -0.000000   0.000000  -0.000000  -0.000001
    21  H    0.000040   0.000940  -0.000042  -0.000008  -0.000044   0.000749
    22  H   -0.028292   0.379528  -0.027290   0.002135  -0.000010   0.002952
              13         14         15         16         17         18
     1  C   -0.001766  -0.000001  -0.000000  -0.000003   0.000174   0.003034
     2  C   -0.000124  -0.000000   0.000000  -0.000000   0.001793  -0.073670
     3  C    0.000033   0.000000   0.000000   0.000000  -0.067788   0.232196
     4  C   -0.000140  -0.000000   0.000000  -0.000000   0.230860  -0.068050
     5  C   -0.001949  -0.000001  -0.000000  -0.000003  -0.072574   0.001738
     6  C    0.003150  -0.000047   0.000003  -0.000147   0.003370   0.000199
     7  C   -0.082705   0.001666   0.000132   0.003494  -0.000130   0.000006
     8  C    0.002204   0.000179   0.001939  -0.073620  -0.000003  -0.000000
     9  C    0.000066   0.001610  -0.076398   0.236357  -0.000000   0.000000
    10  C    0.001554  -0.074393   0.262450  -0.066421   0.000000  -0.000000
    11  C   -0.074588   0.264301  -0.074149   0.001606  -0.000000   0.000000
    12  C    0.254020  -0.074469   0.001616   0.000121  -0.000003  -0.000000
    13  Cl  16.823217  -0.010662  -0.000062   0.000004   0.000006  -0.000001
    14  Cl  -0.010662  16.809961  -0.010996  -0.000056   0.000000  -0.000000
    15  Cl  -0.000062  -0.010996  16.813734  -0.007987  -0.000000   0.000000
    16  Cl   0.000004  -0.000056  -0.007987  16.840379   0.000000  -0.000000
    17  Cl   0.000006   0.000000  -0.000000   0.000000  16.858303  -0.004584
    18  Cl  -0.000001  -0.000000   0.000000  -0.000000  -0.004584  16.861577
    19  H    0.000052   0.000001   0.000000   0.000001   0.000006  -0.000090
    20  H    0.000002   0.000000  -0.000000   0.000000  -0.000064  -0.000662
    21  H    0.000050   0.000001   0.000000   0.000001  -0.000596  -0.000065
    22  H   -0.000066   0.000005  -0.000063  -0.000721   0.000001   0.000000
              19         20         21         22
     1  C    0.379577  -0.023688   0.002336   0.000982
     2  C   -0.026136   0.380829   0.000060  -0.000042
     3  C    0.002407  -0.027922   0.002014  -0.000010
     4  C    0.000102   0.001713  -0.026432  -0.000056
     5  C    0.002408   0.000346   0.380042   0.001001
     6  C   -0.032099   0.001841  -0.030597  -0.000300
     7  C    0.000287  -0.000141   0.000040  -0.028292
     8  C    0.000910  -0.000001   0.000940   0.379528
     9  C   -0.000040  -0.000000  -0.000042  -0.027290
    10  C   -0.000007   0.000000  -0.000008   0.002135
    11  C   -0.000041  -0.000000  -0.000044  -0.000010
    12  C    0.000743  -0.000001   0.000749   0.002952
    13  Cl   0.000052   0.000002   0.000050  -0.000066
    14  Cl   0.000001   0.000000   0.000001   0.000005
    15  Cl   0.000000  -0.000000   0.000000  -0.000063
    16  Cl   0.000001   0.000000   0.000001  -0.000721
    17  Cl   0.000006  -0.000064  -0.000596   0.000001
    18  Cl  -0.000090  -0.000662  -0.000065   0.000000
    19  H    0.438958  -0.001382  -0.000093   0.000085
    20  H   -0.001382   0.423825   0.000008   0.000001
    21  H   -0.000093   0.000008   0.418742   0.000086
    22  H    0.000085   0.000001   0.000086   0.405752
 Mulliken charges:
               1
     1  C   -0.181436
     2  C   -0.174554
     3  C   -0.125677
     4  C   -0.125585
     5  C   -0.161299
     6  C   -0.034124
     7  C    0.010084
     8  C   -0.160993
     9  C   -0.121354
    10  C   -0.113503
    11  C   -0.110923
    12  C   -0.134400
    13  Cl   0.087706
    14  Cl   0.092902
    15  Cl   0.089780
    16  Cl   0.066995
    17  Cl   0.051227
    18  Cl   0.048374
    19  H    0.234352
    20  H    0.245297
    21  H    0.252807
    22  H    0.264323
 Sum of Mulliken charges =  -0.00000
 Mulliken charges with hydrogens summed into heavy atoms:
               1
     1  C    0.052916
     2  C    0.070743
     3  C   -0.125677
     4  C   -0.125585
     5  C    0.091507
     6  C   -0.034124
     7  C    0.010084
     8  C    0.103330
     9  C   -0.121354
    10  C   -0.113503
    11  C   -0.110923
    12  C   -0.134400
    13  Cl   0.087706
    14  Cl   0.092902
    15  Cl   0.089780
    16  Cl   0.066995
    17  Cl   0.051227
    18  Cl   0.048374
 DipInt: DoE/N= T F RetVal/Mat= T F Init=T NMatP=  1 IDeriv=0 Min/MaxMlt=  0  4
 Entering OneElI...
 OneElI was handed   133982183 working-precision words.
 Multipole integrals L=0 to 4 MinM= 0 MaxM= 0.
 Requested accuracy = 0.1000D-12
 PrtBox:  NBox=     1 Levels=  1 BoxLen=   38.94 SMaxX=       19.73
          Shift=           10.531897            5.732975            5.183845
 Box      1 Number                   0 centers from      1 to     86:
 ShPair: Thresh= 1.00D-13 NBox=     1 BxSize= 3.89D+01 RnKept= 1.98D+01
         NSMCal=                 3741 NSMKep=                2912
 PrmmSu-InSpLW:  IPartL=    0 NPrtUS=    1 NPrtUL=    1 DoSpLW=F IThBeg=    0 IThEnd=    0 NThAct=    1.
 PrSmSu:  IncTry=   512 NBBP=           2912 NTPThr=   100 NPartT=    1 Incr=          29 LDynOK=F GPUOK=F.
 PrsmSu:  NPrtUS=   1 ThrOK=F IAlg=2 LenDen=           0 ISkipM=0 DoSpLW=F IThBeg=    0 IThEnd=    0.
 Prism:   IPart=     0 DynPar=F LinDyn=F Incr=          29.
 PRISM was handed   133658376 working-precision words and  2912 shell-pairs
 IPart=  0 NShTot=        2912 NBatch=          58 AvBLen=        50.2
 PrsmSu-ThDecC:  IPartSL=    0    0 NPrtUSL=    1    1 IThBeg=    0 IThEnd=    0 CPU=   -1 GPU=   -1 NThAct=    1.
 PrSmSu:  NxtVal=             30.
 Electronic moments (au):
       -178.00000000          0.01639623         -0.40500298         -0.60185782
      -7310.53180427      -1583.21578384       -637.26339807          0.13544258
          3.20112529          0.27727685      10530.37355386          1.48785605
       -428.73534785      -6217.45338809       3077.63223119       -945.37525206
       3511.79318975        222.59489454         73.82697994       -329.78379646
    -524644.96312543     -40992.76559844      -9067.49950716      -4142.88626689
      -9234.75046477       8244.32898168       -467.34353720       5063.60865279
        414.98071961     -42630.44826941     -31661.28315535      -1494.84621924
        -11.48079252       -113.77500776      -1628.47031102
 Electronic spatial extent (au):  <R**2>=           9531.0110
 DipInt: DoE/N= F T RetVal/Mat= T F Init=T NMatP=  1 IDeriv=0 Min/MaxMlt=  0  4
 Nuclear    moments (au):
        178.00000000         -0.00000000          0.00000000         -0.00000000
       7190.10999202       1473.90120364        533.57443290         -0.00000000
          0.00000000         -0.00000000     -10462.50743118          6.76823850
        420.97244750       6223.38462358      -3061.68927073        930.51413186
      -3527.54432120       -219.91182842        -68.90009556        329.71704633
     498729.99079872      35818.32249887       6985.29908052       4143.92765410
       9337.76706187      -8263.30766255        474.45568637      -5033.28715140
       -421.86815751      37471.25459101      27126.44376581        180.48511966
         13.90653811        102.10977694       1634.56857756
 Total      moments (au):
         -0.00000000          0.01639623         -0.40500298         -0.60185782
       -120.42181225       -109.31458020       -103.68896517          0.13544258
          3.20112529          0.27727685         67.86612268          8.25609455
         -7.76290035          5.93123549         15.94296046        -14.86112020
        -15.75113145          2.68306612          4.92688438         -0.06675013
     -25914.97232671      -5174.44309958      -2082.20042664          1.04138720
        103.01659710        -18.97868087          7.11214918         30.32150139
         -6.88743791      -5159.19367840      -4534.83938953      -1314.36109958
          2.42574559        -11.66523082          6.09826654
 Traceless Quadrup. (au):
         -9.28002637          1.82720567          7.45282070          0.13544258
          3.20112529          0.27727685
 Charge=             -0.0000 electrons
 Dipole moment (field-independent basis, Debye):
    X=              0.0417    Y=             -1.0294    Z=             -1.5298  Tot=              1.8444
 Quadrupole moment (field-independent basis, Debye-Ang):
   XX=           -161.9715   YY=           -147.0319   ZZ=           -139.4652
   XY=              0.1822   XZ=              4.3056   YZ=              0.3729
 Traceless Quadrupole moment (field-independent basis, Debye-Ang):
   XX=            -12.4820   YY=              2.4577   ZZ=             10.0243
   XY=              0.1822   XZ=              4.3056   YZ=              0.3729
 Octapole moment (field-independent basis, Debye-Ang**2):
  XXX=             48.3045  YYY=              5.8764  ZZZ=             -5.5253  XYY=              4.2216
  XXY=             11.3476  XXZ=            -10.5776  XZZ=            -11.2110  YZZ=              1.9097
  YYZ=              3.5068  XYZ=             -0.0475
 Hexadecapole moment (field-independent basis, Debye-Ang**3):
 XXXX=          -9760.8212 YYYY=          -1948.9434 ZZZZ=           -784.2565 XXXY=              0.3922
 XXXZ=             38.8010 YYYX=             -7.1483 YYYZ=              2.6788 ZZZX=             11.4205
 ZZZY=             -2.5941 XXYY=          -1943.1997 XXZZ=          -1708.0380 YYZZ=           -495.0514
 XXYZ=              0.9137 YYXZ=             -4.3937 ZZXY=              2.2969
 N-N= 1.976084652798D+03 E-N=-1.157712724423D+04  KE= 3.211596686634D+03
 Entering OneElI...
 OneElI was handed   134027062 working-precision words.
 Calculate electrostatic properties
    NBasis =   302  MinDer = 0  MaxDer = 0
    NGrid  =    22  NMatD  =   1
 Requested accuracy = 0.1000D-12
 PrtBox:  NBox=     1 Levels=  1 BoxLen=   32.45 SMaxX=       19.73
          Shift=           10.531897            5.732975            5.183845
 Box      1 Number                   0 centers from      1 to     86:
 ShPair: Thresh= 1.00D-13 NBox=     1 BxSize= 3.24D+01 RnKept= 1.98D+01
         NSMCal=                 3741 NSMKep=                2644
 PrmmSu-InSpLW:  IPartL=    0 NPrtUS=    1 NPrtUL=    1 DoSpLW=F IThBeg=    0 IThEnd=    0 NThAct=    1.
 PrSmSu:  IncTry=   512 NBBP=          58168 NTPThr=   100 NPartT=    1 Incr=         512 LDynOK=F GPUOK=F.
 PrsmSu:  NPrtUS=   1 ThrOK=F IAlg=2 LenDen=           0 ISkipM=0 DoSpLW=F IThBeg=    0 IThEnd=    0.
 Prism:   IPart=     0 DynPar=F LinDyn=F Incr=         512.
 PRISM was handed   133729346 working-precision words and  2644 shell-pairs
 IPart=  0 NShTot=       58168 NBatch=        2644 AvBLen=        22.0
 PrsmSu-ThDecC:  IPartSL=    0    0 NPrtUSL=    1    1 IThBeg=    0 IThEnd=    0 CPU=   -1 GPU=   -1 NThAct=    1.
 PrSmSu:  NxtVal=            513.
 --------------------------------------------------------
       Center         ----      EFG at Nuclei      ----
                      3XX-RR        3YY-RR        3ZZ-RR
 --------------------------------------------------------
     1   Atom        0.173624     -0.323285      0.149661
     2   Atom        0.189931     -0.316804      0.126873
     3   Atom       -0.221299     -0.090288      0.311587
     4   Atom        0.175471     -0.094497     -0.080974
     5   Atom        0.123951     -0.292424      0.168473
     6   Atom        0.093283     -0.281286      0.188003
     7   Atom        0.155089      0.144427     -0.299516
     8   Atom        0.122140      0.172561     -0.294701
     9   Atom        0.240800     -0.134682     -0.106117
    10   Atom       -0.217929      0.272212     -0.054283
    11   Atom        0.148840     -0.077535     -0.071305
    12   Atom        0.161146     -0.088912     -0.072234
    13   Atom        0.711727     -2.503260      1.791533
    14   Atom        0.522441     -2.300906      1.778465
    15   Atom       -3.984806      2.212695      1.772111
    16   Atom        1.168366     -2.975567      1.807201
    17   Atom        0.428168      1.770970     -2.199138
    18   Atom       -3.664519      1.771633      1.892886
    19   Atom       -0.003767      0.163098     -0.159331
    20   Atom        0.067009      0.162681     -0.229690
    21   Atom        0.058137      0.161853     -0.219990
    22   Atom        0.014468     -0.172640      0.158172
 --------------------------------------------------------
                        XY            XZ            YZ
 --------------------------------------------------------
     1   Atom        0.004724      0.014094     -0.011631
     2   Atom        0.003782      0.027296     -0.014858
     3   Atom        0.003004     -0.090905     -0.014834
     4   Atom       -0.005231      0.249515      0.001342
     5   Atom        0.006444     -0.016818     -0.020184
     6   Atom       -0.001748     -0.000953     -0.016563
     7   Atom       -0.033066      0.041189      0.012849
     8   Atom       -0.003378      0.038928      0.016646
     9   Atom        0.196564      0.039767      0.017281
    10   Atom        0.023112     -0.014487      0.013758
    11   Atom       -0.220036      0.012468     -0.020683
    12   Atom        0.237987      0.030366      0.020903
    13   Atom        2.629771     -0.002817      0.082926
    14   Atom       -2.811597     -0.218688     -0.405597
    15   Atom        0.330501     -0.527030      0.044124
    16   Atom        2.181672      0.020511      0.026946
    17   Atom       -0.102656      2.620361      0.163389
    18   Atom       -0.017931     -0.916965     -0.011613
    19   Atom       -0.007895      0.205098      0.012226
    20   Atom        0.005368     -0.161937      0.013006
    21   Atom        0.005264     -0.164600      0.012473
    22   Atom       -0.192082     -0.020726     -0.030098
 --------------------------------------------------------


 ---------------------------------------------------------------------------------
              Nuclear Quadrupole Coupling Constant in Principal Axis System
 ---------------------------------------------------------------------------------

       Atom             a.u.   MegaHertz   Gauss  10(-4) cm-1        Axes

              Baa    -3.9789   -76.334   -27.238   -25.462 -0.4890  0.8722 -0.0128
    13 Cl(35) Bbb     1.7888    34.318    12.246    11.447 -0.0894 -0.0356  0.9954
              Bcc     2.1900    42.016    14.992    14.015  0.8677  0.4879  0.0954
 
              Baa    -4.0715   -78.111   -27.872   -26.055  0.5231  0.8486  0.0784
    14 Cl(35) Bbb     1.8130    34.783    12.411    11.602 -0.0923 -0.0350  0.9951
              Bcc     2.2585    43.329    15.461    14.453  0.8472 -0.5278  0.0600
 
              Baa    -4.0504   -77.706   -27.727   -25.920  0.9945 -0.0531  0.0904
    15 Cl(35) Bbb     1.8195    34.907    12.456    11.644 -0.0923 -0.0341  0.9951
              Bcc     2.2309    42.799    15.272    14.276  0.0498  0.9980  0.0388
 
              Baa    -3.9124   -75.059   -26.783   -25.037 -0.3945  0.9189 -0.0029
    16 Cl(35) Bbb     1.8044    34.616    12.352    11.547 -0.0908 -0.0358  0.9952
              Bcc     2.1081    40.443    14.431    13.490  0.9144  0.3929  0.0975
 
              Baa    -3.8233   -73.350   -26.173   -24.467 -0.5250 -0.0345  0.8504
    17 Cl(35) Bbb     1.7776    34.103    12.169    11.376 -0.0133  0.9994  0.0323
              Bcc     2.0457    39.247    14.004    13.091  0.8510 -0.0057  0.5251
 
              Baa    -3.8120   -73.132   -26.095   -24.394  0.9873  0.0035  0.1587
    18 Cl(35) Bbb     1.7714    33.985    12.127    11.336 -0.0085  0.9995  0.0311
              Bcc     2.0406    39.148    13.969    13.058 -0.1585 -0.0320  0.9868
 

 ---------------------------------------------------------------------------------

 No NMR shielding tensors so no spin-rotation constants.
 Leave Link  601 at Thu Nov  2 13:05:09 2023, MaxMem=   134217728 cpu:               0.2 elap:               0.2
 FitSet:  NAtFit=    22 NAtPot=    22 NAtFrz=     0 MDM=    26 TotChg=   0.00000
 Merz-Kollman atomic radii used.
 Atom Element Radius
    1     6    1.50
    2     6    1.50
    3     6    1.50
    4     6    1.50
    5     6    1.50
    6     6    1.50
    7     6    1.50
    8     6    1.50
    9     6    1.50
   10     6    1.50
   11     6    1.50
   12     6    1.50
   13    17    1.70
   14    17    1.70
   15    17    1.70
   16    17    1.70
   17    17    1.70
   18    17    1.70
   19     1    1.20
   20     1    1.20
   21     1    1.20
   22     1    1.20
 Generate VDW surfaces: Layer= 4 Dens= 6 Start= 1.400 Inc= 0.200

 **********************************************************************

            Electrostatic Properties Using The SCF Density.

 **********************************************************************

       Atomic Center    1 is at  -1.663921 -0.144530 -1.617051
       Atomic Center    2 is at  -3.052645 -0.147194 -1.748045
       Atomic Center    3 is at  -3.859465 -0.190151 -0.611066
       Atomic Center    4 is at  -3.278662 -0.230030  0.656123
       Atomic Center    5 is at  -1.889344 -0.227307  0.786314
       Atomic Center    6 is at  -1.082524 -0.184350 -0.350665
       Atomic Center    7 is at   0.358154 -0.181649 -0.216101
       Atomic Center    8 is at   1.010506 -1.414285 -0.198208
       Atomic Center    9 is at   2.398790 -1.467109 -0.070342
       Atomic Center   10 is at   3.134624 -0.287707  0.038282
       Atomic Center   11 is at   2.482459  0.945870  0.019349
       Atomic Center   12 is at   1.093988  0.997754 -0.107477
       Atomic Center   13 is at   0.258704  2.526099 -0.128307
       Atomic Center   14 is at   3.398966  2.420582  0.156158
       Atomic Center   15 is at   4.865899 -0.368909  0.196168
       Atomic Center   16 is at   3.134529 -3.033760 -0.058704
       Atomic Center   17 is at  -4.224799 -0.288378  2.101388
       Atomic Center   18 is at  -5.573240 -0.196704 -0.838428
       Atomic Center   19 is at  -1.047542 -0.109956 -2.513000
       Atomic Center   20 is at  -3.489266 -0.113647 -2.743172
       Atomic Center   21 is at  -1.432364 -0.259058  1.774211
       Atomic Center   22 is at   0.436393 -2.335045 -0.285383
      ESP Fit Center   23 is at  -1.977802  1.770059 -0.813416
      ESP Fit Center   24 is at  -2.382043  1.657822 -0.813416
      ESP Fit Center   25 is at  -2.382043 -1.946881 -0.813416
      ESP Fit Center   26 is at  -1.977802 -2.059118 -0.813416
      ESP Fit Center   27 is at  -2.180177  1.849370 -1.207362
      ESP Fit Center   28 is at  -2.180177 -2.138429 -1.207362
      ESP Fit Center   29 is at  -1.768240 -2.201535 -1.207362
      ESP Fit Center   30 is at  -1.352033 -2.180427 -1.207362
      ESP Fit Center   31 is at  -1.663921  1.955470 -1.617051
      ESP Fit Center   32 is at  -2.073611  1.915120 -1.617051
      ESP Fit Center   33 is at  -2.073611 -2.204179 -1.617051
      ESP Fit Center   34 is at  -1.663921 -2.244530 -1.617051
      ESP Fit Center   35 is at  -1.254231 -2.204179 -1.617051
      ESP Fit Center   36 is at  -0.860286 -2.084677 -1.617051
      ESP Fit Center   37 is at  -0.497223 -1.890616 -1.617051
      ESP Fit Center   38 is at  -1.352033  1.891368 -2.026741
      ESP Fit Center   39 is at  -1.768240  1.912476 -2.026741
      ESP Fit Center   40 is at  -2.180177  1.849370 -2.026741
      ESP Fit Center   41 is at  -2.180177 -2.138429 -2.026741
      ESP Fit Center   42 is at  -1.768240 -2.201535 -2.026741
      ESP Fit Center   43 is at  -1.352033 -2.180427 -2.026741
      ESP Fit Center   44 is at  -0.948594 -2.075970 -2.026741
      ESP Fit Center   45 is at  -0.574441 -1.892439 -2.026741
      ESP Fit Center   46 is at  -0.244891 -1.637348 -2.026741
      ESP Fit Center   47 is at  -0.755140  1.569614 -2.420686
      ESP Fit Center   48 is at  -1.144877  1.724899 -2.420686
      ESP Fit Center   49 is at  -1.558884  1.792772 -2.420686
      ESP Fit Center   50 is at  -1.977802  1.770059 -2.420686
      ESP Fit Center   51 is at  -1.977802 -2.059118 -2.420686
      ESP Fit Center   52 is at  -1.558884 -2.081831 -2.420686
      ESP Fit Center   53 is at  -1.144877 -2.013958 -2.420686
      ESP Fit Center   54 is at  -0.755140 -1.858673 -2.420686
      ESP Fit Center   55 is at  -1.453454  1.588826 -2.783749
      ESP Fit Center   56 is at  -1.874388  1.588826 -2.783749
      ESP Fit Center   57 is at  -1.874388 -1.877885 -2.783749
      ESP Fit Center   58 is at  -1.453454 -1.877885 -2.783749
      ESP Fit Center   59 is at  -1.044750 -1.777148 -2.783749
      ESP Fit Center   60 is at  -1.875248  1.325280 -3.101975
      ESP Fit Center   61 is at  -1.875248 -1.614339 -3.101975
      ESP Fit Center   62 is at  -1.983203 -1.266689 -3.363137
      ESP Fit Center   63 is at  -2.533601  1.722234 -0.944410
      ESP Fit Center   64 is at  -2.947608  1.790107 -0.944410
      ESP Fit Center   65 is at  -2.947608 -2.084496 -0.944410
      ESP Fit Center   66 is at  -2.533601 -2.016623 -0.944410
      ESP Fit Center   67 is at  -2.740757  1.888703 -1.338356
      ESP Fit Center   68 is at  -3.156965  1.909811 -1.338356
      ESP Fit Center   69 is at  -3.568901  1.846705 -1.338356
      ESP Fit Center   70 is at  -3.568901 -2.141094 -1.338356
      ESP Fit Center   71 is at  -3.156965 -2.204200 -1.338356
      ESP Fit Center   72 is at  -2.740757 -2.183092 -1.338356
      ESP Fit Center   73 is at  -2.642955  1.912455 -1.748045
      ESP Fit Center   74 is at  -3.052645  1.952806 -1.748045
      ESP Fit Center   75 is at  -3.462335  1.912455 -1.748045
      ESP Fit Center   76 is at  -3.856280  1.792953 -1.748045
      ESP Fit Center   77 is at  -4.219342  1.598892 -1.748045
      ESP Fit Center   78 is at  -3.856280 -2.087341 -1.748045
      ESP Fit Center   79 is at  -3.462335 -2.206843 -1.748045
      ESP Fit Center   80 is at  -3.052645 -2.247194 -1.748045
      ESP Fit Center   81 is at  -2.642955 -2.206843 -1.748045
      ESP Fit Center   82 is at  -2.337318  1.784246 -2.157735
      ESP Fit Center   83 is at  -2.740757  1.888703 -2.157735
      ESP Fit Center   84 is at  -3.156965  1.909811 -2.157735
      ESP Fit Center   85 is at  -3.568901  1.846705 -2.157735
      ESP Fit Center   86 is at  -3.959702  1.701968 -2.157735
      ESP Fit Center   87 is at  -4.313369  1.481526 -2.157735
      ESP Fit Center   88 is at  -4.313369 -1.775915 -2.157735
      ESP Fit Center   89 is at  -3.959702 -1.996357 -2.157735
      ESP Fit Center   90 is at  -3.568901 -2.141094 -2.157735
      ESP Fit Center   91 is at  -3.156965 -2.204200 -2.157735
      ESP Fit Center   92 is at  -2.740757 -2.183092 -2.157735
      ESP Fit Center   93 is at  -2.337318 -2.078635 -2.157735
      ESP Fit Center   94 is at  -2.533601  1.722234 -2.551680
      ESP Fit Center   95 is at  -2.947608  1.790107 -2.551680
      ESP Fit Center   96 is at  -3.366526  1.767394 -2.551680
      ESP Fit Center   97 is at  -3.770767  1.655157 -2.551680
      ESP Fit Center   98 is at  -4.141430  1.458644 -2.551680
      ESP Fit Center   99 is at  -4.461183 -1.481432 -2.551680
      ESP Fit Center  100 is at  -4.141430 -1.753033 -2.551680
      ESP Fit Center  101 is at  -3.770767 -1.949546 -2.551680
      ESP Fit Center  102 is at  -3.366526 -2.061783 -2.551680
      ESP Fit Center  103 is at  -2.947608 -2.084496 -2.551680
      ESP Fit Center  104 is at  -2.533601 -2.016623 -2.551680
      ESP Fit Center  105 is at  -2.433474  1.485425 -2.914743
      ESP Fit Center  106 is at  -2.842178  1.586161 -2.914743
      ESP Fit Center  107 is at  -3.263112  1.586161 -2.914743
      ESP Fit Center  108 is at  -3.671816 -1.779813 -2.914743
      ESP Fit Center  109 is at  -3.263112 -1.880550 -2.914743
      ESP Fit Center  110 is at  -2.842178 -1.880550 -2.914743
      ESP Fit Center  111 is at  -2.433474 -1.779813 -2.914743
      ESP Fit Center  112 is at  -2.435785  1.203540 -3.232970
      ESP Fit Center  113 is at  -2.841318 -1.617004 -3.232970
      ESP Fit Center  114 is at  -2.435785 -1.497929 -3.232970
      ESP Fit Center  115 is at  -2.190445 -0.933193 -3.494131
      ESP Fit Center  116 is at  -4.173346  1.724437  0.192569
      ESP Fit Center  117 is at  -4.173346 -2.104740  0.192569
      ESP Fit Center  118 is at  -3.144138  1.741289 -0.201376
      ESP Fit Center  119 is at  -3.547577  1.845746 -0.201376
      ESP Fit Center  120 is at  -3.963784  1.866854 -0.201376
      ESP Fit Center  121 is at  -4.375721  1.803748 -0.201376
      ESP Fit Center  122 is at  -4.375721 -2.184051 -0.201376
      ESP Fit Center  123 is at  -3.963784 -2.247157 -0.201376
      ESP Fit Center  124 is at  -3.547577 -2.226049 -0.201376
      ESP Fit Center  125 is at  -3.055830  1.749996 -0.611066
      ESP Fit Center  126 is at  -3.449775  1.869498 -0.611066
      ESP Fit Center  127 is at  -3.859465  1.909849 -0.611066
      ESP Fit Center  128 is at  -4.269155  1.869498 -0.611066
      ESP Fit Center  129 is at  -4.269155 -2.249800 -0.611066
      ESP Fit Center  130 is at  -3.859465 -2.290151 -0.611066
      ESP Fit Center  131 is at  -3.449775 -2.249800 -0.611066
      ESP Fit Center  132 is at  -3.055830 -2.130298 -0.611066
      ESP Fit Center  133 is at  -2.692767 -1.936238 -0.611066
      ESP Fit Center  134 is at  -3.547577  1.845746 -1.020755
      ESP Fit Center  135 is at  -3.963784  1.866854 -1.020755
      ESP Fit Center  136 is at  -3.963784 -2.247157 -1.020755
      ESP Fit Center  137 is at  -3.547577 -2.226049 -1.020755
      ESP Fit Center  138 is at  -3.144138 -2.121592 -1.020755
      ESP Fit Center  139 is at  -4.173346  1.724437 -1.414701
      ESP Fit Center  140 is at  -4.173346 -2.104740 -1.414701
      ESP Fit Center  141 is at  -3.754427 -2.127453 -1.414701
      ESP Fit Center  142 is at  -2.759618  1.639399  1.459758
      ESP Fit Center  143 is at  -2.759618 -2.099459  1.459758
      ESP Fit Center  144 is at  -2.966774  1.805868  1.065812
      ESP Fit Center  145 is at  -3.382981  1.826975  1.065812
      ESP Fit Center  146 is at  -3.382981 -2.287036  1.065812
      ESP Fit Center  147 is at  -2.966774 -2.265928  1.065812
      ESP Fit Center  148 is at  -2.868972  1.829619  0.656123
      ESP Fit Center  149 is at  -3.278662  1.869970  0.656123
      ESP Fit Center  150 is at  -3.688352  1.829619  0.656123
      ESP Fit Center  151 is at  -4.082297  1.710117  0.656123
      ESP Fit Center  152 is at  -3.688352 -2.289679  0.656123
      ESP Fit Center  153 is at  -3.278662 -2.330030  0.656123
      ESP Fit Center  154 is at  -2.868972 -2.289679  0.656123
      ESP Fit Center  155 is at  -2.563335  1.701410  0.246433
      ESP Fit Center  156 is at  -2.966774  1.805868  0.246433
      ESP Fit Center  157 is at  -3.382981  1.826975  0.246433
      ESP Fit Center  158 is at  -3.794918  1.763869  0.246433
      ESP Fit Center  159 is at  -4.185719 -2.079192  0.246433
      ESP Fit Center  160 is at  -3.794918 -2.223929  0.246433
      ESP Fit Center  161 is at  -3.382981 -2.287036  0.246433
      ESP Fit Center  162 is at  -2.966774 -2.265928  0.246433
      ESP Fit Center  163 is at  -2.563335 -2.161470  0.246433
      ESP Fit Center  164 is at  -2.759618  1.639399 -0.147513
      ESP Fit Center  165 is at  -3.173624 -2.167332 -0.147513
      ESP Fit Center  166 is at  -2.759618 -2.099459 -0.147513
      ESP Fit Center  167 is at  -2.100671  1.242503  2.271239
      ESP Fit Center  168 is at  -1.270173  1.405312  1.953012
      ESP Fit Center  169 is at  -1.678876  1.506049  1.953012
      ESP Fit Center  170 is at  -2.099811  1.506049  1.953012
      ESP Fit Center  171 is at  -2.508515  1.405312  1.953012
      ESP Fit Center  172 is at  -2.099811 -1.960662  1.953012
      ESP Fit Center  173 is at  -1.678876 -1.960662  1.953012
      ESP Fit Center  174 is at  -1.370300  1.642122  1.589950
      ESP Fit Center  175 is at  -1.784306  1.709995  1.589950
      ESP Fit Center  176 is at  -2.203225  1.687282  1.589950
      ESP Fit Center  177 is at  -2.607466  1.575045  1.589950
      ESP Fit Center  178 is at  -2.607466 -2.029658  1.589950
      ESP Fit Center  179 is at  -2.203225 -2.141895  1.589950
      ESP Fit Center  180 is at  -1.784306 -2.164608  1.589950
      ESP Fit Center  181 is at  -1.370300 -2.096735  1.589950
      ESP Fit Center  182 is at  -0.980563 -1.941450  1.589950
      ESP Fit Center  183 is at  -1.993663  1.829699  1.196004
      ESP Fit Center  184 is at  -2.405600  1.766592  1.196004
      ESP Fit Center  185 is at  -2.405600 -2.221206  1.196004
      ESP Fit Center  186 is at  -1.993663 -2.284312  1.196004
      ESP Fit Center  187 is at  -1.577456 -2.263205  1.196004
      ESP Fit Center  188 is at  -1.174017 -2.158747  1.196004
      ESP Fit Center  189 is at  -0.799864 -1.975216  1.196004
      ESP Fit Center  190 is at  -1.889344  1.872693  0.786314
      ESP Fit Center  191 is at  -2.299033  1.832342  0.786314
      ESP Fit Center  192 is at  -2.299033 -2.286956  0.786314
      ESP Fit Center  193 is at  -1.889344 -2.327307  0.786314
      ESP Fit Center  194 is at  -1.479654 -2.286956  0.786314
      ESP Fit Center  195 is at  -1.085709 -2.167454  0.786314
      ESP Fit Center  196 is at  -1.993663  1.829699  0.376625
      ESP Fit Center  197 is at  -2.405600  1.766592  0.376625
      ESP Fit Center  198 is at  -2.405600 -2.221206  0.376625
      ESP Fit Center  199 is at  -1.993663 -2.284312  0.376625
      ESP Fit Center  200 is at  -1.577456 -2.263205  0.376625
      ESP Fit Center  201 is at  -1.174017 -2.158747  0.376625
      ESP Fit Center  202 is at  -2.203225  1.687282 -0.017321
      ESP Fit Center  203 is at  -2.203225 -2.141895 -0.017321
      ESP Fit Center  204 is at  -1.784306 -2.164608 -0.017321
      ESP Fit Center  205 is at  -1.598780 -2.178249  0.059025
      ESP Fit Center  206 is at  -2.249221  1.561736 -0.350665
      ESP Fit Center  207 is at  -1.886159 -2.124497 -0.350665
      ESP Fit Center  208 is at  -1.492214 -2.243999 -0.350665
      ESP Fit Center  209 is at  -1.598780 -2.178249 -0.760355
      ESP Fit Center  210 is at  -1.186843 -2.241355 -0.760355
      ESP Fit Center  211 is at   0.358154 -0.181649  1.883899
      ESP Fit Center  212 is at   0.767844 -0.181649  1.843548
      ESP Fit Center  213 is at   0.562999  0.173153  1.843548
      ESP Fit Center  214 is at   0.562999 -0.536451  1.843548
      ESP Fit Center  215 is at   1.161790 -0.181649  1.724046
      ESP Fit Center  216 is at   1.843079 -0.181649 -1.701025
      ESP Fit Center  217 is at   1.524852 -0.181649 -1.962187
      ESP Fit Center  218 is at   1.161790 -0.181649 -2.156248
      ESP Fit Center  219 is at   1.054123  0.220169 -2.156248
      ESP Fit Center  220 is at   0.759972  0.514320 -2.156248
      ESP Fit Center  221 is at   0.358154 -0.985284 -2.156248
      ESP Fit Center  222 is at   1.054123 -0.583466 -2.156248
      ESP Fit Center  223 is at   0.767844 -0.181649 -2.275750
      ESP Fit Center  224 is at   0.562999 -0.536451 -2.275750
      ESP Fit Center  225 is at   1.010506 -1.414285  1.901792
      ESP Fit Center  226 is at   1.420195 -1.414285  1.861441
      ESP Fit Center  227 is at   1.215351 -1.059484  1.861441
      ESP Fit Center  228 is at   0.805661 -1.059484  1.861441
      ESP Fit Center  229 is at   0.600816 -1.414285  1.861441
      ESP Fit Center  230 is at   0.805661 -1.769087  1.861441
      ESP Fit Center  231 is at   1.215351 -1.769087  1.861441
      ESP Fit Center  232 is at   1.412323 -0.718317  1.741939
      ESP Fit Center  233 is at   1.010506 -0.610650  1.741939
      ESP Fit Center  234 is at   0.314537 -1.012468  1.741939
      ESP Fit Center  235 is at   0.206871 -1.414285  1.741939
      ESP Fit Center  236 is at   0.314537 -1.816103  1.741939
      ESP Fit Center  237 is at   0.608688 -2.110254  1.741939
      ESP Fit Center  238 is at   1.010506 -2.217921  1.741939
      ESP Fit Center  239 is at   1.412323 -2.110254  1.741939
      ESP Fit Center  240 is at   1.530548 -0.369901  1.547878
      ESP Fit Center  241 is at  -0.136327 -1.628665  1.547878
      ESP Fit Center  242 is at   0.018560 -2.028472  1.547878
      ESP Fit Center  243 is at   0.307413 -2.345330  1.547878
      ESP Fit Center  244 is at   0.691224 -2.536445  1.547878
      ESP Fit Center  245 is at   1.118155 -2.576006  1.547878
      ESP Fit Center  246 is at  -0.414269 -1.832637  1.286716
      ESP Fit Center  247 is at  -0.238692 -2.217096  1.286716
      ESP Fit Center  248 is at   0.799179 -2.884095  1.286716
      ESP Fit Center  249 is at  -0.414269 -1.832637 -1.683132
      ESP Fit Center  250 is at   1.221832 -2.884095 -1.683132
      ESP Fit Center  251 is at   1.872706 -0.628286 -1.944294
      ESP Fit Center  252 is at  -0.136327 -1.628665 -1.944294
      ESP Fit Center  253 is at   0.018560 -2.028472 -1.944294
      ESP Fit Center  254 is at   0.691224 -2.536445 -1.944294
      ESP Fit Center  255 is at   1.118155 -2.576006 -1.944294
      ESP Fit Center  256 is at   1.530548 -2.458670 -1.944294
      ESP Fit Center  257 is at   1.814141 -1.414285 -2.138355
      ESP Fit Center  258 is at   1.706474 -1.012468 -2.138355
      ESP Fit Center  259 is at   1.412323 -0.718317 -2.138355
      ESP Fit Center  260 is at   0.206871 -1.414285 -2.138355
      ESP Fit Center  261 is at   0.314537 -1.816103 -2.138355
      ESP Fit Center  262 is at   0.608688 -2.110254 -2.138355
      ESP Fit Center  263 is at   1.010506 -2.217921 -2.138355
      ESP Fit Center  264 is at   1.412323 -2.110254 -2.138355
      ESP Fit Center  265 is at   1.706474 -1.816103 -2.138355
      ESP Fit Center  266 is at   1.420195 -1.414285 -2.257857
      ESP Fit Center  267 is at   1.215351 -1.059484 -2.257857
      ESP Fit Center  268 is at   0.805661 -1.059484 -2.257857
      ESP Fit Center  269 is at   0.600816 -1.414285 -2.257857
      ESP Fit Center  270 is at   0.805661 -1.769087 -2.257857
      ESP Fit Center  271 is at   1.215351 -1.769087 -2.257857
      ESP Fit Center  272 is at   1.010506 -1.414285 -2.298208
      ESP Fit Center  273 is at   2.398790 -1.467109  2.029658
      ESP Fit Center  274 is at   2.808480 -1.467109  1.989307
      ESP Fit Center  275 is at   2.603635 -1.112308  1.989307
      ESP Fit Center  276 is at   2.193945 -1.112308  1.989307
      ESP Fit Center  277 is at   1.989101 -1.467109  1.989307
      ESP Fit Center  278 is at   2.193945 -1.821911  1.989307
      ESP Fit Center  279 is at   2.603635 -1.821911  1.989307
      ESP Fit Center  280 is at   3.202425 -1.467109  1.869805
      ESP Fit Center  281 is at   1.996973 -0.771141  1.869805
      ESP Fit Center  282 is at   1.702822 -1.065292  1.869805
      ESP Fit Center  283 is at   1.595155 -1.467109  1.869805
      ESP Fit Center  284 is at   1.702822 -1.868927  1.869805
      ESP Fit Center  285 is at   1.996973 -2.163078  1.869805
      ESP Fit Center  286 is at   1.695698 -0.536065  1.675745
      ESP Fit Center  287 is at   3.565488 -1.467109 -1.816428
      ESP Fit Center  288 is at   2.079508 -0.344950 -1.816428
      ESP Fit Center  289 is at   3.202425 -1.467109 -2.010489
      ESP Fit Center  290 is at   3.094759 -1.065292 -2.010489
      ESP Fit Center  291 is at   2.800608 -0.771141 -2.010489
      ESP Fit Center  292 is at   2.398790 -0.663474 -2.010489
      ESP Fit Center  293 is at   1.996973 -0.771141 -2.010489
      ESP Fit Center  294 is at   1.996973 -2.163078 -2.010489
      ESP Fit Center  295 is at   2.808480 -1.467109 -2.129991
      ESP Fit Center  296 is at   2.603635 -1.112308 -2.129991
      ESP Fit Center  297 is at   2.193945 -1.112308 -2.129991
      ESP Fit Center  298 is at   1.989101 -1.467109 -2.129991
      ESP Fit Center  299 is at   2.193945 -1.821911 -2.129991
      ESP Fit Center  300 is at   2.603635 -1.821911 -2.129991
      ESP Fit Center  301 is at   2.398790 -1.467109 -2.170342
      ESP Fit Center  302 is at   3.134624 -0.287707  2.138282
      ESP Fit Center  303 is at   3.339469  0.067095  2.097931
      ESP Fit Center  304 is at   2.929779  0.067095  2.097931
      ESP Fit Center  305 is at   2.724934 -0.287707  2.097931
      ESP Fit Center  306 is at   2.929779 -0.642508  2.097931
      ESP Fit Center  307 is at   3.339469 -0.642508  2.097931
      ESP Fit Center  308 is at   3.134624  0.515928  1.978429
      ESP Fit Center  309 is at   2.438655  0.114111  1.978429
      ESP Fit Center  310 is at   2.330989 -0.287707  1.978429
      ESP Fit Center  311 is at   2.438655 -0.689524  1.978429
      ESP Fit Center  312 is at   2.732806 -0.983675  1.978429
      ESP Fit Center  313 is at   3.134624 -1.091342  1.978429
      ESP Fit Center  314 is at   1.987792 -0.502087  1.784368
      ESP Fit Center  315 is at   1.649700 -0.287707  1.523206
      ESP Fit Center  316 is at   3.830592  0.114111 -1.901865
      ESP Fit Center  317 is at   3.536442  0.408262 -1.901865
      ESP Fit Center  318 is at   2.330989 -0.287707 -1.901865
      ESP Fit Center  319 is at   3.536442 -0.983675 -1.901865
      ESP Fit Center  320 is at   3.544314 -0.287707 -2.021367
      ESP Fit Center  321 is at   3.339469  0.067095 -2.021367
      ESP Fit Center  322 is at   2.929779  0.067095 -2.021367
      ESP Fit Center  323 is at   2.724934 -0.287707 -2.021367
      ESP Fit Center  324 is at   2.929779 -0.642508 -2.021367
      ESP Fit Center  325 is at   3.339469 -0.642508 -2.021367
      ESP Fit Center  326 is at   3.134624 -0.287707 -2.061718
      ESP Fit Center  327 is at   2.482459  0.945870  2.119349
      ESP Fit Center  328 is at   2.892149  0.945870  2.078998
      ESP Fit Center  329 is at   2.277614  1.300672  2.078998
      ESP Fit Center  330 is at   2.072769  0.945870  2.078998
      ESP Fit Center  331 is at   2.277614  0.591068  2.078998
      ESP Fit Center  332 is at   2.687304  0.591068  2.078998
      ESP Fit Center  333 is at   1.786490  1.347687  1.959496
      ESP Fit Center  334 is at   1.678824  0.945870  1.959496
      ESP Fit Center  335 is at   1.786490  0.544052  1.959496
      ESP Fit Center  336 is at   2.080641  0.249901  1.959496
      ESP Fit Center  337 is at   1.779367  0.014825  1.765436
      ESP Fit Center  338 is at   3.649156  0.945870 -1.726737
      ESP Fit Center  339 is at   3.286094  0.945870 -1.920798
      ESP Fit Center  340 is at   2.080641  1.641838 -1.920798
      ESP Fit Center  341 is at   2.080641  0.249901 -1.920798
      ESP Fit Center  342 is at   2.482459  0.142235 -1.920798
      ESP Fit Center  343 is at   3.178427  0.544052 -1.920798
      ESP Fit Center  344 is at   2.892149  0.945870 -2.040300
      ESP Fit Center  345 is at   2.687304  1.300672 -2.040300
      ESP Fit Center  346 is at   2.277614  1.300672 -2.040300
      ESP Fit Center  347 is at   2.072769  0.945870 -2.040300
      ESP Fit Center  348 is at   2.277614  0.591068 -2.040300
      ESP Fit Center  349 is at   2.687304  0.591068 -2.040300
      ESP Fit Center  350 is at   2.482459  0.945870 -2.080651
      ESP Fit Center  351 is at   1.093988  0.997754  1.992523
      ESP Fit Center  352 is at   1.503678  0.997754  1.952172
      ESP Fit Center  353 is at   1.298833  1.352555  1.952172
      ESP Fit Center  354 is at   0.889143  1.352555  1.952172
      ESP Fit Center  355 is at   0.684298  0.997754  1.952172
      ESP Fit Center  356 is at   0.889143  0.642952  1.952172
      ESP Fit Center  357 is at   1.298833  0.642952  1.952172
      ESP Fit Center  358 is at   1.495806  1.693722  1.832670
      ESP Fit Center  359 is at   0.290353  0.997754  1.832670
      ESP Fit Center  360 is at   0.398020  0.595936  1.832670
      ESP Fit Center  361 is at   0.692171  0.301785  1.832670
      ESP Fit Center  362 is at   1.093988  0.194119  1.832670
      ESP Fit Center  363 is at   1.495806  0.301785  1.832670
      ESP Fit Center  364 is at  -0.052844  0.783374  1.638609
      ESP Fit Center  365 is at   1.956188  1.783753 -1.853563
      ESP Fit Center  366 is at   1.897623  0.997754 -2.047624
      ESP Fit Center  367 is at   1.789957  1.399571 -2.047624
      ESP Fit Center  368 is at   1.495806  1.693722 -2.047624
      ESP Fit Center  369 is at   0.290353  0.997754 -2.047624
      ESP Fit Center  370 is at   1.495806  0.301785 -2.047624
      ESP Fit Center  371 is at   1.789957  0.595936 -2.047624
      ESP Fit Center  372 is at   1.503678  0.997754 -2.167126
      ESP Fit Center  373 is at   1.298833  1.352555 -2.167126
      ESP Fit Center  374 is at   0.889143  1.352555 -2.167126
      ESP Fit Center  375 is at   0.684298  0.997754 -2.167126
      ESP Fit Center  376 is at   0.889143  0.642952 -2.167126
      ESP Fit Center  377 is at   1.298833  0.642952 -2.167126
      ESP Fit Center  378 is at   1.093988  0.997754 -2.207477
      ESP Fit Center  379 is at   0.258704  2.526099  2.251693
      ESP Fit Center  380 is at   0.671987  2.526099  2.215536
      ESP Fit Center  381 is at   0.465345  2.884013  2.215536
      ESP Fit Center  382 is at   0.052063  2.884013  2.215536
      ESP Fit Center  383 is at  -0.154579  2.526099  2.215536
      ESP Fit Center  384 is at   0.052063  2.168186  2.215536
      ESP Fit Center  385 is at   0.465345  2.168186  2.215536
      ESP Fit Center  386 is at   1.072712  2.526099  2.108162
      ESP Fit Center  387 is at   0.963655  2.933103  2.108162
      ESP Fit Center  388 is at   0.665708  3.231051  2.108162
      ESP Fit Center  389 is at   0.258704  3.340107  2.108162
      ESP Fit Center  390 is at  -0.148300  3.231051  2.108162
      ESP Fit Center  391 is at  -0.446248  2.933103  2.108162
      ESP Fit Center  392 is at  -0.555304  2.526099  2.108162
      ESP Fit Center  393 is at  -0.446248  2.119095  2.108162
      ESP Fit Center  394 is at  -0.148300  1.821148  2.108162
      ESP Fit Center  395 is at   0.258704  1.712091  2.108162
      ESP Fit Center  396 is at   0.665708  1.821148  2.108162
      ESP Fit Center  397 is at   0.963655  2.119095  2.108162
      ESP Fit Center  398 is at   1.448704  2.526099  1.932834
      ESP Fit Center  399 is at   1.376938  2.933103  1.932834
      ESP Fit Center  400 is at   1.170297  3.291017  1.932834
      ESP Fit Center  401 is at   0.853704  3.556670  1.932834
      ESP Fit Center  402 is at   0.465345  3.698021  1.932834
      ESP Fit Center  403 is at   0.052063  3.698021  1.932834
      ESP Fit Center  404 is at  -0.336296  3.556670  1.932834
      ESP Fit Center  405 is at  -0.652889  3.291017  1.932834
      ESP Fit Center  406 is at  -0.859530  2.933103  1.932834
      ESP Fit Center  407 is at  -0.931296  2.526099  1.932834
      ESP Fit Center  408 is at  -0.859530  2.119095  1.932834
      ESP Fit Center  409 is at  -0.652889  1.761182  1.932834
      ESP Fit Center  410 is at  -0.336296  1.495529  1.932834
      ESP Fit Center  411 is at   0.052063  1.354178  1.932834
      ESP Fit Center  412 is at   0.465345  1.354178  1.932834
      ESP Fit Center  413 is at   0.853704  1.495529  1.932834
      ESP Fit Center  414 is at   1.170297  1.761182  1.932834
      ESP Fit Center  415 is at   1.376938  2.119095  1.932834
      ESP Fit Center  416 is at   1.565824  3.320977  1.694879
      ESP Fit Center  417 is at   1.302897  3.644157  1.694879
      ESP Fit Center  418 is at   0.962527  3.884417  1.694879
      ESP Fit Center  419 is at   0.569958  4.023936  1.694879
      ESP Fit Center  420 is at   0.154304  4.052368  1.694879
      ESP Fit Center  421 is at  -0.253606  3.967603  1.694879
      ESP Fit Center  422 is at  -0.623522  3.775928  1.694879
      ESP Fit Center  423 is at  -0.928006  3.491560  1.694879
      ESP Fit Center  424 is at  -1.144478  3.135587  1.694879
      ESP Fit Center  425 is at  -1.256882  2.734412  1.694879
      ESP Fit Center  426 is at  -1.256882  2.317787  1.694879
      ESP Fit Center  427 is at  -1.144478  1.916612  1.694879
      ESP Fit Center  428 is at  -0.928006  1.560639  1.694879
      ESP Fit Center  429 is at  -0.623522  1.276271  1.694879
      ESP Fit Center  430 is at  -0.253606  1.084596  1.694879
      ESP Fit Center  431 is at   1.655345  3.698021  1.401528
      ESP Fit Center  432 is at   1.347435  3.988519  1.401528
      ESP Fit Center  433 is at   0.980831  4.200178  1.401528
      ESP Fit Center  434 is at   0.575297  4.321587  1.401528
      ESP Fit Center  435 is at   0.152695  4.346201  1.401528
      ESP Fit Center  436 is at  -0.264192  4.272692  1.401528
[...]
 9382 Fit      -0.008393
 9383 Fit      -0.008411
 9384 Fit      -0.008380
 9385 Fit      -0.008379
 9386 Fit      -0.008478
 9387 Fit      -0.008725
 9388 Fit      -0.009139
 9389 Fit      -0.009710
 9390 Fit      -0.003798
 9391 Fit      -0.004501
 9392 Fit      -0.005294
 9393 Fit      -0.006082
 9394 Fit      -0.006766
 9395 Fit      -0.007277
 9396 Fit      -0.007582
 9397 Fit      -0.007692
 9398 Fit      -0.007647
 9399 Fit      -0.007515
 9400 Fit      -0.007371
 9401 Fit      -0.007290
 9402 Fit      -0.007334
 9403 Fit      -0.007543
 9404 Fit      -0.007932
 9405 Fit      -0.008491
 9406 Fit      -0.009189
 9407 Fit      -0.003349
 9408 Fit      -0.003959
 9409 Fit      -0.004712
 9410 Fit      -0.005481
 9411 Fit      -0.006156
 9412 Fit      -0.006660
 9413 Fit      -0.006958
 9414 Fit      -0.007050
 9415 Fit      -0.006968
 9416 Fit      -0.006769
 9417 Fit      -0.006520
 9418 Fit      -0.006295
 9419 Fit      -0.006160
 9420 Fit      -0.006168
 9421 Fit      -0.006351
 9422 Fit      -0.006720
 9423 Fit      -0.007266
 9424 Fit      -0.007959
 9425 Fit      -0.008761
 9426 Fit      -0.009639
 9427 Fit      -0.002807
 9428 Fit      -0.003369
 9429 Fit      -0.004102
 9430 Fit      -0.004862
 9431 Fit      -0.005533
 9432 Fit      -0.006039
 9433 Fit      -0.006341
 9434 Fit      -0.006433
 9435 Fit      -0.006339
 9436 Fit      -0.006106
 9437 Fit      -0.005794
 9438 Fit      -0.005467
 9439 Fit      -0.005193
 9440 Fit      -0.005027
 9441 Fit      -0.005014
 9442 Fit      -0.005180
 9443 Fit      -0.005533
 9444 Fit      -0.006063
 9445 Fit      -0.006741
 9446 Fit      -0.007531
 9447 Fit      -0.008391
 9448 Fit      -0.009289
 9449 Fit      -0.001891
 9450 Fit      -0.002271
 9451 Fit      -0.002958
 9452 Fit      -0.003764
 9453 Fit      -0.004536
 9454 Fit      -0.005166
 9455 Fit      -0.005593
 9456 Fit      -0.005794
 9457 Fit      -0.005778
 9458 Fit      -0.005579
 9459 Fit      -0.005252
 9460 Fit      -0.004859
 9461 Fit      -0.004469
 9462 Fit      -0.004147
 9463 Fit      -0.003948
 9464 Fit      -0.003915
 9465 Fit      -0.004074
 9466 Fit      -0.004429
 9467 Fit      -0.004970
 9468 Fit      -0.005666
 9469 Fit      -0.006478
 9470 Fit      -0.007356
 9471 Fit      -0.008256
 9472 Fit      -0.009143
 9473 Fit      -0.010003
 9474 Fit      -0.001014
 9475 Fit      -0.001637
 9476 Fit      -0.002486
 9477 Fit      -0.003364
 9478 Fit      -0.004135
 9479 Fit      -0.004715
 9480 Fit      -0.005062
 9481 Fit      -0.005172
 9482 Fit      -0.005066
 9483 Fit      -0.004787
 9484 Fit      -0.004393
 9485 Fit      -0.003949
 9486 Fit      -0.003523
 9487 Fit      -0.003177
 9488 Fit      -0.002963
 9489 Fit      -0.002922
 9490 Fit      -0.003077
 9491 Fit      -0.003431
 9492 Fit      -0.003973
 9493 Fit      -0.004673
 9494 Fit      -0.005489
 9495 Fit      -0.006371
 9496 Fit      -0.007265
 9497 Fit      -0.008123
 9498 Fit      -0.008904
 9499 Fit      -0.009585
 9500 Fit      -0.000197
 9501 Fit      -0.001165
 9502 Fit      -0.002187
 9503 Fit      -0.003104
 9504 Fit      -0.003820
 9505 Fit      -0.004286
 9506 Fit      -0.004493
 9507 Fit      -0.004458
 9508 Fit      -0.004224
 9509 Fit      -0.003845
 9510 Fit      -0.003388
 9511 Fit      -0.002921
 9512 Fit      -0.002509
 9513 Fit      -0.002211
 9514 Fit      -0.002073
 9515 Fit      -0.002126
 9516 Fit      -0.002383
 9517 Fit      -0.002839
 9518 Fit      -0.003472
 9519 Fit      -0.004244
 9520 Fit      -0.005108
 9521 Fit      -0.006005
 9522 Fit      -0.006878
 9523 Fit      -0.007669
 9524 Fit      -0.008330
 9525 Fit      -0.008820
 9526 Fit      -0.009105
 9527 Fit       0.001631
 9528 Fit       0.000452
 9529 Fit      -0.000777
 9530 Fit      -0.001886
 9531 Fit      -0.002776
 9532 Fit      -0.003397
 9533 Fit      -0.003738
 9534 Fit      -0.003815
 9535 Fit      -0.003667
 9536 Fit      -0.003347
 9537 Fit      -0.002920
 9538 Fit      -0.002452
 9539 Fit      -0.002012
 9540 Fit      -0.001659
 9541 Fit      -0.001444
 9542 Fit      -0.001404
 9543 Fit      -0.001561
 9544 Fit      -0.001917
 9545 Fit      -0.002460
 9546 Fit      -0.003159
 9547 Fit      -0.003971
 9548 Fit      -0.004844
 9549 Fit      -0.005717
 9550 Fit      -0.006529
 9551 Fit      -0.007220
 9552 Fit      -0.007737
 9553 Fit      -0.008031
 9554 Fit      -0.008059
 9555 Fit      -0.007780
 9556 Fit      -0.007142
 9557 Fit       0.003395
 9558 Fit       0.001778
 9559 Fit       0.000251
 9560 Fit      -0.001045
 9561 Fit      -0.002039
 9562 Fit      -0.002705
 9563 Fit      -0.003053
 9564 Fit      -0.003116
 9565 Fit      -0.002947
 9566 Fit      -0.002612
 9567 Fit      -0.002184
 9568 Fit      -0.001735
 9569 Fit      -0.001336
 9570 Fit      -0.001049
 9571 Fit      -0.000920
 9572 Fit      -0.000981
 9573 Fit      -0.001247
 9574 Fit      -0.001711
 9575 Fit      -0.002349
 9576 Fit      -0.003123
 9577 Fit      -0.003977
 9578 Fit      -0.004850
 9579 Fit      -0.005675
 9580 Fit      -0.006385
 9581 Fit      -0.006914
 9582 Fit      -0.007207
 9583 Fit      -0.007212
 9584 Fit      -0.006890
 9585 Fit      -0.006205
 9586 Fit      -0.005136
 9587 Fit      -0.003687
 9588 Fit       0.005320
 9589 Fit       0.003173
 9590 Fit       0.001315
 9591 Fit      -0.000178
 9592 Fit      -0.001279
 9593 Fit      -0.001997
 9594 Fit      -0.002365
 9595 Fit      -0.002436
 9596 Fit      -0.002277
 9597 Fit      -0.001962
 9598 Fit      -0.001570
 9599 Fit      -0.001179
 9600 Fit      -0.000857
 9601 Fit      -0.000664
 9602 Fit      -0.000641
 9603 Fit      -0.000812
 9604 Fit      -0.001183
 9605 Fit      -0.001738
 9606 Fit      -0.002443
 9607 Fit      -0.003248
 9608 Fit      -0.004092
 9609 Fit      -0.004908
 9610 Fit      -0.005623
 9611 Fit      -0.006170
 9612 Fit      -0.006484
 9613 Fit      -0.006513
 9614 Fit      -0.006217
 9615 Fit      -0.005569
 9616 Fit      -0.004565
 9617 Fit      -0.003232
 9618 Fit      -0.001648
 9619 Fit       0.000039
 9620 Fit       0.006656
 9621 Fit       0.004002
 9622 Fit       0.001895
 9623 Fit       0.000311
 9624 Fit      -0.000789
 9625 Fit      -0.001459
 9626 Fit      -0.001765
 9627 Fit      -0.001783
 9628 Fit      -0.001600
 9629 Fit      -0.001303
 9630 Fit      -0.000976
 9631 Fit      -0.000698
 9632 Fit      -0.000534
 9633 Fit      -0.000530
 9634 Fit      -0.000715
 9635 Fit      -0.001093
 9636 Fit      -0.001649
 9637 Fit      -0.002346
 9638 Fit      -0.003130
 9639 Fit      -0.003935
 9640 Fit      -0.004688
 9641 Fit      -0.005313
 9642 Fit      -0.005738
 9643 Fit      -0.005901
 9644 Fit      -0.005753
 9645 Fit      -0.005264
 9646 Fit      -0.004428
 9647 Fit      -0.003268
 9648 Fit      -0.001853
 9649 Fit      -0.000305
 9650 Fit       0.001198
 9651 Fit       0.007517
 9652 Fit       0.004529
 9653 Fit       0.002299
 9654 Fit       0.000705
 9655 Fit      -0.000351
 9656 Fit      -0.000961
 9657 Fit      -0.001220
 9658 Fit      -0.001223
 9659 Fit      -0.001068
 9660 Fit      -0.000846
 9661 Fit      -0.000644
 9662 Fit      -0.000531
 9663 Fit      -0.000560
 9664 Fit      -0.000761
 9665 Fit      -0.001141
 9666 Fit      -0.001684
 9667 Fit      -0.002351
 9668 Fit      -0.003086
 9669 Fit      -0.003820
 9670 Fit      -0.004478
 9671 Fit      -0.004982
 9672 Fit      -0.005264
 9673 Fit      -0.005264
 9674 Fit      -0.004944
 9675 Fit      -0.004287
 9676 Fit      -0.003309
 9677 Fit      -0.002061
 9678 Fit      -0.000642
 9679 Fit       0.000806
 9680 Fit       0.006221
 9681 Fit       0.003485
 9682 Fit       0.001583
 9683 Fit       0.000338
 9684 Fit      -0.000391
 9685 Fit      -0.000735
 9686 Fit      -0.000816
 9687 Fit      -0.000753
 9688 Fit      -0.000651
 9689 Fit      -0.000601
 9690 Fit      -0.000670
 9691 Fit      -0.000899
 9692 Fit      -0.001296
 9693 Fit      -0.001844
 9694 Fit      -0.002497
 9695 Fit      -0.003188
 9696 Fit      -0.003836
 9697 Fit      -0.004355
 9698 Fit      -0.004661
 9699 Fit      -0.004686
 9700 Fit      -0.004381
 9701 Fit      -0.003726
 9702 Fit      -0.002739
 9703 Fit      -0.001480
 9704 Fit      -0.000054
 9705 Fit       0.001386
 9706 Fit       0.007750
 9707 Fit       0.004537
 9708 Fit       0.002349
 9709 Fit       0.000928
 9710 Fit       0.000079
 9711 Fit      -0.000362
 9712 Fit      -0.000547
 9713 Fit      -0.000610
 9714 Fit      -0.000665
 9715 Fit      -0.000798
 9716 Fit      -0.001063
 9717 Fit      -0.001474
 9718 Fit      -0.002012
 9719 Fit      -0.002622
 9720 Fit      -0.003227
 9721 Fit      -0.003734
 9722 Fit      -0.004050
 9723 Fit      -0.004092
 9724 Fit      -0.003800
 9725 Fit      -0.003146
 9726 Fit      -0.002147
 9727 Fit      -0.000862
 9728 Fit       0.000601
 9729 Fit       0.002100
 9730 Fit       0.008905
 9731 Fit       0.005353
 9732 Fit       0.002952
 9733 Fit       0.001389
 9734 Fit       0.000433
 9735 Fit      -0.000114
 9736 Fit      -0.000422
 9737 Fit      -0.000635
 9738 Fit      -0.000864
 9739 Fit      -0.001177
 9740 Fit      -0.001599
 9741 Fit      -0.002107
 9742 Fit      -0.002639
 9743 Fit      -0.003108
 9744 Fit      -0.003414
 9745 Fit      -0.003460
 9746 Fit      -0.003173
 9747 Fit      -0.002515
 9748 Fit      -0.001493
 9749 Fit      -0.000161
 9750 Fit       0.001386
 9751 Fit       0.003045
 9752 Fit       0.008480
 9753 Fit       0.005057
 9754 Fit       0.002764
 9755 Fit       0.001294
 9756 Fit       0.000386
 9757 Fit      -0.000178
 9758 Fit      -0.000583
 9759 Fit      -0.000957
 9760 Fit      -0.001373
 9761 Fit      -0.001836
 9762 Fit      -0.002292
 9763 Fit      -0.002647
 9764 Fit      -0.002786
 9765 Fit      -0.002604
 9766 Fit      -0.002029
 9767 Fit      -0.001037
 9768 Fit       0.000340
 9769 Fit       0.002033
 9770 Fit       0.003986
 9771 Fit       0.007532
 9772 Fit       0.004444
 9773 Fit       0.002372
 9774 Fit       0.001040
 9775 Fit       0.000184
 9776 Fit      -0.000419
 9777 Fit      -0.000919
 9778 Fit      -0.001377
 9779 Fit      -0.001766
 9780 Fit      -0.001989
 9781 Fit      -0.001919
 9782 Fit      -0.001443
 9783 Fit      -0.000495
 9784 Fit       0.000929
 9785 Fit       0.002792
 9786 Fit       0.005091
 9787 Fit       0.008947
 9788 Fit       0.005447
 9789 Fit       0.002965
 9790 Fit       0.001354
 9791 Fit       0.000325
 9792 Fit      -0.000372
 9793 Fit      -0.000851
 9794 Fit      -0.001072
 9795 Fit      -0.000892
 9796 Fit      -0.000157
 9797 Fit       0.001217
 9798 Fit       0.003231
 9799 Fit       0.005879
 9800 Fit       0.006224
 9801 Fit       0.003444
 9802 Fit       0.001613
 9803 Fit       0.000564
 9804 Fit       0.000124
 9805 Fit       0.000373
 9806 Fit       0.001509
 9807 Fit       0.003599
 9808 Fit       0.006472
 9809 Fit       0.006404
 9810 Fit       0.006337
 9811 Fit       0.003765
 9812 Fit       0.001967
 9813 Fit       0.001943
 9814 Fit       0.003836
 9815 Fit       0.003899
 9816 Fit       0.011783
 9817 Fit       0.013020
 9818 Fit       0.017006
 9819 Fit       0.016352
 9820 Fit       0.012726
 9821 Fit       0.013474
 9822 Fit       0.014538
 9823 Fit       0.016051
 9824 Fit       0.016963
 9825 Fit       0.016515
 9826 Fit       0.015862
 9827 Fit       0.015150
 9828 Fit       0.014583
 9829 Fit       0.014328
 9830 Fit       0.014442
 9831 Fit       0.014909
 9832 Fit       0.015727
 9833 Fit       0.016977
 9834 Fit       0.018873
 9835 Fit       0.016778
 9836 Fit       0.016997
 9837 Fit       0.017148
 9838 Fit       0.017164
 9839 Fit       0.017049
 9840 Fit       0.016779
 9841 Fit       0.016388
 9842 Fit       0.016014
 9843 Fit       0.015811
 9844 Fit       0.015890
 9845 Fit       0.016305
 9846 Fit       0.017102
 9847 Fit       0.018386
 9848 Fit       0.020353
 9849 Fit       0.016340
 9850 Fit       0.016762
 9851 Fit       0.017024
 9852 Fit       0.017131
 9853 Fit       0.017202
 9854 Fit       0.017100
 9855 Fit       0.016934
 9856 Fit       0.016834
 9857 Fit       0.016929
 9858 Fit       0.017319
 9859 Fit       0.018082
 9860 Fit       0.019312
 9861 Fit       0.021105
 9862 Fit       0.016046
 9863 Fit       0.016575
 9864 Fit       0.016947
 9865 Fit       0.017158
 9866 Fit       0.017388
 9867 Fit       0.017436
 9868 Fit       0.017476
 9869 Fit       0.017654
 9870 Fit       0.018108
 9871 Fit       0.018933
 9872 Fit       0.020156
 9873 Fit       0.021587
 9874 Fit       0.016075
 9875 Fit       0.016496
 9876 Fit       0.016918
 9877 Fit       0.017226
 9878 Fit       0.017609
 9879 Fit       0.017819
 9880 Fit       0.018132
 9881 Fit       0.018737
 9882 Fit       0.019642
 9883 Fit       0.020406
 9884 Fit       0.020157
 9885 Fit       0.018778
 9886 Fit       0.017423
 9887 Fit       0.016896
 9888 Fit       0.017017
 9889 Fit       0.017338
 9890 Fit       0.017897
 9891 Fit       0.018354
 9892 Fit       0.019007
 9893 Fit       0.019007
 9894 Fit       0.018025
 9895 Fit       0.017643
 9896 Fit       0.018322
 9897 Fit       0.007721
 9898 Fit       0.011124
 9899 Fit       0.010468
 9900 Fit       0.009689
 9901 Fit       0.008654
 9902 Fit       0.014363
 9903 Fit       0.013350
 9904 Fit       0.012553
 9905 Fit       0.011797
 9906 Fit       0.010946
 9907 Fit       0.009883
 9908 Fit       0.008496
 9909 Fit       0.016765
 9910 Fit       0.015358
 9911 Fit       0.014341
 9912 Fit       0.013492
 9913 Fit       0.012655
 9914 Fit       0.011710
 9915 Fit       0.010561
 9916 Fit       0.009135
 9917 Fit       0.018947
 9918 Fit       0.017214
 9919 Fit       0.015977
 9920 Fit       0.015011
 9921 Fit       0.014148
 9922 Fit       0.013267
 9923 Fit       0.012275
 9924 Fit       0.011114
 9925 Fit       0.009759
 9926 Fit       0.019918
 9927 Fit       0.018176
 9928 Fit       0.016872
 9929 Fit       0.015837
 9930 Fit       0.014914
 9931 Fit       0.013984
 9932 Fit       0.012967
 9933 Fit       0.011825
 9934 Fit       0.010581
 9935 Fit       0.021822
 9936 Fit       0.020215
 9937 Fit       0.018701
 9938 Fit       0.017443
 9939 Fit       0.016392
 9940 Fit       0.015437
 9941 Fit       0.014481
 9942 Fit       0.013467
 9943 Fit       0.012399
 9944 Fit       0.011350
 9945 Fit       0.010462
 9946 Fit       0.009898
 9947 Fit       0.009751
 9948 Fit       0.009980
 9949 Fit       0.010465
 9950 Fit       0.020211
 9951 Fit       0.020428
 9952 Fit       0.019687
 9953 Fit       0.018566
 9954 Fit       0.017443
 9955 Fit       0.016409
 9956 Fit       0.015416
 9957 Fit       0.014414
 9958 Fit       0.013419
 9959 Fit       0.012532
 9960 Fit       0.011913
 9961 Fit       0.011686
 9962 Fit       0.011871
 9963 Fit       0.012433
 9964 Fit       0.013405
 9965 Fit       0.018456
 9966 Fit       0.018640
 9967 Fit       0.017937
 9968 Fit       0.016907
 9969 Fit       0.015824
 9970 Fit       0.014765
 9971 Fit       0.013866
 9972 Fit       0.013363
 9973 Fit       0.013441
 9974 Fit       0.014156
 9975 Fit       0.015496
 9976 Fit       0.017185
 9977 Fit       0.017150
 9978 Fit       0.017091
 9979 Fit       0.016035
 9980 Fit       0.015000
 9981 Fit       0.014835
 9982 Fit       0.015877
 9983 Fit       0.016053
 9984 Fit       0.008432
 9985 Fit       0.010236
 9986 Fit       0.008914
 9987 Fit       0.009819
 9988 Fit       0.011624
 9989 Fit       0.010661
 9990 Fit       0.009130
 9991 Fit       0.007324
 9992 Fit       0.009290
 9993 Fit       0.011052
 9994 Fit       0.011801
 9995 Fit       0.012732
 9996 Fit       0.011916
 9997 Fit       0.010666
 9998 Fit       0.009109
 9999 Fit       0.007447
 **** Fit       0.005775
 **** Fit       0.010671
 **** Fit       0.012126
 **** Fit       0.012891
 **** Fit       0.013069
 **** Fit       0.013650
 **** Fit       0.012920
 **** Fit       0.011806
 **** Fit       0.010323
 **** Fit       0.008610
 **** Fit       0.011493
 **** Fit       0.012888
 **** Fit       0.013710
 **** Fit       0.014063
 **** Fit       0.014029
 **** Fit       0.014438
 **** Fit       0.013810
 **** Fit       0.012836
 **** Fit       0.011432
 **** Fit       0.011901
 **** Fit       0.013381
 **** Fit       0.014314
 **** Fit       0.014802
 **** Fit       0.014938
 **** Fit       0.014804
 **** Fit       0.015107
 **** Fit       0.012337
 **** Fit       0.013872
 **** Fit       0.014889
 **** Fit       0.015468
 **** Fit       0.015686
 **** Fit       0.015633
 **** Fit       0.015417
 **** Fit       0.011925
 **** Fit       0.013865
 **** Fit       0.015240
 **** Fit       0.016110
 **** Fit       0.016516
 **** Fit       0.011466
 **** Fit       0.013818
 **** Fit       0.015630
 **** Fit       0.016935
 **** Fit       0.013176
 **** Fit       0.015628
 **** Fit       0.017684
 **** Fit       0.017936
 **** Fit       0.015948
 **** Fit       0.017711
 **** Fit       0.016309
 **** Fit       0.014778
 **** Fit       0.017018
 **** Fit       0.016283
 **** Fit       0.015329
 **** Fit       0.013981
 **** Fit       0.016132
 **** Fit       0.015899
 **** Fit       0.015321
 **** Fit       0.014295
 **** Fit       0.015497
 **** Fit       0.015613
 **** Fit       0.015332
 **** Fit       0.014603
 **** Fit       0.013329
 **** Fit       0.014878
 **** Fit       0.015359
 **** Fit       0.015421
 **** Fit       0.015065
 **** Fit       0.014237
 **** Fit       0.014498
 **** Fit       0.015160
 **** Fit       0.015386
 **** Fit       0.015188
 **** Fit       0.014528
 **** Fit       0.013320
 **** Fit       0.013845
 **** Fit       0.014772
 **** Fit       0.015262
 **** Fit       0.015334
 **** Fit       0.014969
 **** Fit       0.014107
 **** Fit       0.014378
 **** Fit       0.015032
 **** Fit       0.015310
 **** Fit       0.015194
 **** Fit       0.014644
 **** Fit       0.013582
 **** Fit       0.014186
 **** Fit       0.014875
 **** Fit       0.015225
 **** Fit       0.015200
 **** Fit       0.014748
 **** Fit       0.013793
 **** Fit       0.014864
 **** Fit       0.015155
 **** Fit       0.015169
 **** Fit       0.014806
 **** Fit       0.013978
 **** Fit       0.015250
 **** Fit       0.015205
 **** Fit       0.014995
 **** Fit       0.014415
 **** Fit       0.013359
 **** Fit       0.014951
 **** Fit       0.014267
 **** Fit       0.013137
 -----------------------------------------------------------------
 Leave Link  602 at Thu Nov  2 13:42:06 2023, MaxMem=   134217728 cpu:               1.6 elap:               1.6

 Test job not archived.
 1\1\GINC-LAC-217\FOpt\RHF\6-31G(d)\C12H4Cl6\RAHNAMOU\02-Nov-2023\0\\#H
 F/6-31G* SCF=tight Pop=MK iop(6/33=2) iop(6/42=6) opt\\mobley_1034539\
 \0,1\C,1.7763207189,-1.2901400676,-0.0776288811\C,2.8157015579,-1.8422
 788408,0.6405860875\C,2.9112846993,-1.6398224995,2.0098860215\C,1.9539
 359249,-0.8747538909,2.6545978575\C,0.9113356146,-0.3181173966,1.92800
 27266\C,0.8108335288,-0.5212443611,0.5623865788\C,-0.29557909,0.131625
 1088,-0.2042374186\C,-0.2912649546,1.5114805804,-0.3202489788\C,-1.278
 1795918,2.1797244365,-1.0168543636\C,-2.3064858511,1.4735590081,-1.623
 5597258\C,-2.3303437159,0.0831429075,-1.5127707721\C,-1.3314592863,-0.
 5800652892,-0.8052642616\Cl,-1.38823275,-2.3037649029,-0.6427888082\Cl
 ,-3.6083638173,-0.8105568216,-2.251174139\Cl,-3.5364609689,2.305551584
 ,-2.4990489142\Cl,-1.1821383758,3.9046519498,-1.1097693886\Cl,2.012628
 2245,-0.5830058948,4.3615206949\Cl,4.2368135858,-2.35704055,2.86291920
 88\H,1.7189366534,-1.4558391923,-1.1372184255\H,3.5634226306,-2.432872
 1685,0.1471826164\H,0.1758714892,0.2680769237,2.4451709016\H,0.5004237
 739,2.0766893771,0.1313113834\\Version=ES64L-G16RevC.01\State=1-A\HF=-
 3213.615913\RMSD=6.210e-09\RMSF=1.302e-05\Dipole=0.3862977,0.0893671,-
 0.4446796\Quadrupole=-0.1362343,1.7586791,-1.6224447,0.380518,-7.29883
 65,4.2593237\PG=C01 [X(C12H4Cl6)]\\@


 YOU SHOULDN'T LET PEOPLE DRIVE YOU CRAZY
 WHEN YOU KNOW IT'S WITHIN WALKING DISTANCE.
 Job cpu time:       0 days  0 hours 38 minutes 16.0 seconds.
 Elapsed time:       0 days  0 hours 38 minutes 15.7 seconds.
 File lengths (MBytes):  RWF=    288 Int=      0 D2E=      0 Chk=     32 Scr=     32
 Normal termination of Gaussian 16 at Thu Nov  2 13:42:06 2023.
